----- GAMESS execution script 'rungms' -----
This job is running on host multivac2
under operating system Linux at Sat Jan 5 13:36:00 -03 2019
Available scratch disk space (Kbyte units) at beginning of the job is
Filesystem      1K-blocks     Used  Available Use% Mounted on
/dev/sda4      1650447924 65469344 1501117640   5% /
GAMESS temporary binary files will be written to /home/igorchem/programs/src
GAMESS supplementary output files will be written to /home/igorchem/programs/usrsrc
Copying input file metano_cat.inp to your run's scratch directory...

 Distributed Data Interface kickoff program.
 Initiating 1 compute processes on 1 nodes to run the following command:
 /home/igorchem/programs/gamess/gamess.00.x metano_cat 

          ******************************************************
          *         GAMESS VERSION = 11 NOV 2017 (R3)         *
          *             FROM IOWA STATE UNIVERSITY             *
          * M.W.SCHMIDT, K.K.BALDRIDGE, J.A.BOATZ, S.T.ELBERT, *
          *   M.S.GORDON, J.H.JENSEN, S.KOSEKI, N.MATSUNAGA,   *
          *          K.A.NGUYEN, S.J.SU, T.L.WINDUS,           *
          *       TOGETHER WITH M.DUPUIS, J.A.MONTGOMERY       *
          *         J.COMPUT.CHEM.  14, 1347-1363(1993)        *
          **************** 64 BIT LINUX VERSION ****************

  SINCE 1993, STUDENTS AND POSTDOCS WORKING AT IOWA STATE UNIVERSITY
  AND ALSO IN THEIR VARIOUS JOBS AFTER LEAVING ISU HAVE MADE IMPORTANT
  CONTRIBUTIONS TO THE CODE:
     IVANA ADAMOVIC, CHRISTINE AIKENS, YURI ALEXEEV, POOJA ARORA,
     ANDREY ASADCHEV, ROB BELL, PRADIPTA BANDYOPADHYAY, JONATHAN BENTZ,
     BRETT BODE, KURT BRORSEN, CALEB CARLIN, GALINA CHABAN, WEI CHEN,
     CHEOL HO CHOI, PAUL DAY, ALBERT DEFUSCO, NUWAN DESILVA, TIM DUDLEY,
     DMITRI FEDOROV, ALEX FINDLATER, GRAHAM FLETCHER, MARK FREITAG,
     KURT GLAESEMANN, ANASTASIA GUININA,
     DAN KEMP, GRANT MERRILL, NORIYUKI MINEZAWA, JONATHAN MULLIN,
     TAKESHI NAGATA, SEAN NEDD, HEATHER NETZLOFF, BOSILJKA NJEGIC, RYAN OLSON,
     MIKE PAK, BUU PHAM,
     SPENCER PRUITT, LUKE ROSKOP, JIM SHOEMAKER, LYUDMILA SLIPCHENKO,
     TONY SMITH, SAROM SOK LEANG, JIE SONG, TETSUYA TAKETSUGU, SIMON WEBB,
     PENG XU, SOOHAENG YOO, FEDERICO ZAHARIEV

  ADDITIONAL CODE HAS BEEN PROVIDED BY COLLABORATORS IN OTHER GROUPS:
     IOWA STATE UNIVERSITY:
          JOE IVANIC, AARON WEST, LAIMUTIS BYTAUTAS, KLAUS RUEDENBERG
     UNIVERSITY OF TOKYO: KIMIHIKO HIRAO, TAKAHITO NAKAJIMA,
          TAKAO TSUNEDA, MUNEAKI KAMIYA, SUSUMU YANAGISAWA,
          KIYOSHI YAGI, MAHITO CHIBA, SEIKEN TOKURA, NAOAKI KAWAKAMI
     UNIVERSITY OF AARHUS: FRANK JENSEN
     UNIVERSITY OF IOWA: VISVALDAS KAIRYS, HUI LI
     NATIONAL INST. OF STANDARDS AND TECHNOLOGY: WALT STEVENS, DAVID GARMER
     UNIVERSITY OF PISA: BENEDETTA MENNUCCI, JACOPO TOMASI
     UNIVERSITY OF MEMPHIS: HENRY KURTZ, PRAKASHAN KORAMBATH
     UNIVERSITY OF ALBERTA: TOBY ZENG, MARIUSZ KLOBUKOWSKI
     UNIVERSITY OF NEW ENGLAND: MARK SPACKMAN
     MIE UNIVERSITY: HIROAKI UMEDA
     NAT. INST. OF ADVANCED INDUSTRIAL SCIENCE AND TECHNOLOGY: KAZUO KITAURA
     MICHIGAN STATE UNIVERSITY:
          KAROL KOWALSKI, MARTA WLOCH, JEFFREY GOUR, JESSE LUTZ,
          WEI LI, PIOTR PIECUCH
     UNIVERSITY OF SILESIA: MONIKA MUSIAL, STANISLAW KUCHARSKI
     FACULTES UNIVERSITAIRES NOTRE-DAME DE LA PAIX:
          OLIVIER QUINET, BENOIT CHAMPAGNE
     UNIVERSITY OF CALIFORNIA - SANTA BARBARA: BERNARD KIRTMAN
     INSTITUTE FOR MOLECULAR SCIENCE:
          KAZUYA ISHIMURA, MICHIO KATOUDA, AND SHIGERU NAGASE
     UNIVERSITY OF NOTRE DAME: ANNA POMOGAEVA, DAN CHIPMAN
     KYUSHU UNIVERSITY:
          HARUYUKI NAKANO,
          FENG LONG GU, JACEK KORCHOWIEC, MARCIN MAKOWSKI, AND YURIKO AOKI,
          HIROTOSHI MORI AND EISAKU MIYOSHI
     PENNSYLVANIA STATE UNIVERSITY:
          TZVETELIN IORDANOV, CHET SWALINA, JONATHAN SKONE,
          SHARON HAMMES-SCHIFFER
     WASEDA UNIVERSITY:
          MASATO KOBAYASHI, TOMOKO AKAMA, TSUGUKI TOUMA,
          TAKESHI YOSHIKAWA, YASUHIRO IKABATA, JUNJI SEINO,
          YUYA NAKAJIMA, HIROMI NAKAI
     NANJING UNIVERSITY: SHUHUA LI
     UNIVERSITY OF NEBRASKA:
          PEIFENG SU, DEJUN SI, NANDUN THELLAMUREGE, YALI WANG, HUI LI
     UNIVERSITY OF ZURICH: ROBERTO PEVERATI, KIM BALDRIDGE
     N. COPERNICUS UNIVERSITY AND JACKSON STATE UNIVERSITY:
          MARIA BARYSZ
     UNIVERSITY OF COPENHAGEN: Jimmy Kromann, CASPER STEINMANN
     TOKYO INSTITUTE OF TECHNOLOGY: HIROYA NAKATA
     NAGOYA UNIVERSITY: YOSHIO NISHIMOTO, STEPHAN IRLE
     MOSCOW STATE UNIVERSITY: VLADIMIR MIRONOV

 EXECUTION OF GAMESS BEGUN Sat Jan  5 13:36:00 2019

            ECHO OF THE FIRST FEW INPUT CARDS -
 INPUT CARD>! ================================================================              
 INPUT CARD>! This file was generated by Gabedit                                            
 INPUT CARD>! ================================================================              
 INPUT CARD> $SYSTEM MWORDS=20 $END                                                         
 INPUT CARD> $CONTRL RUNTYP=Energy $END                                                     
 INPUT CARD> $CONTRL SCFTYP=UHF $END                                                        
 INPUT CARD> $CONTRL ICHARG=1  MULT=2 $END                                                  
 INPUT CARD> $BASIS GBASIS=N311 NGAUSS=6 $END                                               
 INPUT CARD> $BASIS NDFUNC=1 NFFUNC=1 $END                                                  
 INPUT CARD> $BASIS DIFFSP=.TRUE. DIFFS=.TRUE. $END                                         
 INPUT CARD> $SCF DIRSCF=.TRUE. $END                                                        
 INPUT CARD> $DATA                                                                          
 INPUT CARD>Molecule specification                                                          
 INPUT CARD>C1                                                                              
 INPUT CARD>C  6.000000 0.000001 0.000001 0.000001                                          
 INPUT CARD>H  1.000000 -0.847018 -0.618048 0.297781                                        
 INPUT CARD>H  1.000000 0.612664 -0.544903 -0.718207                                        
 INPUT CARD>H  1.000000 0.598776 0.243097 0.877770                                          
 INPUT CARD>H  1.000000 -0.364422 0.919853 -0.457346                                        
 INPUT CARD> $END                                                                           
   20000000 WORDS OF MEMORY AVAILABLE

     BASIS OPTIONS
     -------------
     GBASIS=N311         IGAUSS=       6      POLAR=POPN311 
     NDFUNC=       1     NFFUNC=       1     DIFFSP=       T
     NPFUNC=       0      DIFFS=       T     BASNAM=        


     RUN TITLE
     ---------
 Molecule specification                                                          

 THE POINT GROUP OF THE MOLECULE IS C1      
 THE ORDER OF THE PRINCIPAL AXIS IS     0

 ATOM      ATOMIC                      COORDINATES (BOHR)
           CHARGE         X                   Y                   Z
 C           6.0     0.0000018897        0.0000018897        0.0000018897
 H           1.0    -1.6006319267       -1.1679413673        0.5627244943
 H           1.0     1.1577670825       -1.0297173599       -1.3572144325
 H           1.0     1.1315225680        0.4593867184        1.6587447802
 H           1.0    -0.6886577239        1.7382701190       -0.8642586216

          INTERNUCLEAR DISTANCES (ANGS.)
          ------------------------------

                1 C          2 H          3 H          4 H          5 H     

   1 C       0.0000000    1.0899994 *  1.0899996 *  1.0900026 *  1.0899991 *
   2 H       1.0899994 *  0.0000000    1.7799588 *  1.7799658 *  1.7799593 *
   3 H       1.0899996 *  1.7799588 *  0.0000000    1.7799661 *  1.7799595 *
   4 H       1.0900026 *  1.7799658 *  1.7799661 *  0.0000000    1.7799674 *
   5 H       1.0899991 *  1.7799593 *  1.7799595 *  1.7799674 *  0.0000000  

  * ... LESS THAN  3.000


     ATOMIC BASIS SET
     ----------------
 THE CONTRACTED PRIMITIVE FUNCTIONS HAVE BEEN UNNORMALIZED
 THE CONTRACTED BASIS FUNCTIONS ARE NOW NORMALIZED TO UNITY

  SHELL TYPE  PRIMITIVE        EXPONENT          CONTRACTION COEFFICIENT(S)

 C         

      1   S       1          4563.2400000    0.001966650249
      1   S       2           682.0240000    0.015230601932
      1   S       3           154.9730000    0.076126909656
      1   S       4            44.4553000    0.260801033080
      1   S       5            13.0290000    0.616462078191
      1   S       6             1.8277300    0.221006028032

      2   L       7            20.9642000    0.114660080729    0.040248692673
      2   L       8             4.8033100    0.919999647749    0.237593956746
      2   L       9             1.4593300   -0.003030682134    0.815853851473

      3   L      10             0.4834560    1.000000000000    1.000000000000

      4   L      11             0.1455850    1.000000000000    1.000000000000

      5   L      12             0.0438000    1.000000000000    1.000000000000

      6   D      13             0.6260000    1.000000000000

      7   F      14             0.8000000    1.000000000000

 H         

      8   S      15            33.8650000    0.025493814541
      8   S      16             5.0947900    0.190373108582
      8   S      17             1.1587900    0.852161486043

      9   S      18             0.3258400    1.000000000000

     10   S      19             0.1027410    1.000000000000

     11   S      20             0.0360000    1.000000000000

 H         

     12   S      21            33.8650000    0.025493814541
     12   S      22             5.0947900    0.190373108582
     12   S      23             1.1587900    0.852161486043

     13   S      24             0.3258400    1.000000000000

     14   S      25             0.1027410    1.000000000000

     15   S      26             0.0360000    1.000000000000

 H         

     16   S      27            33.8650000    0.025493814541
     16   S      28             5.0947900    0.190373108582
     16   S      29             1.1587900    0.852161486043

     17   S      30             0.3258400    1.000000000000

     18   S      31             0.1027410    1.000000000000

     19   S      32             0.0360000    1.000000000000

 H         

     20   S      33            33.8650000    0.025493814541
     20   S      34             5.0947900    0.190373108582
     20   S      35             1.1587900    0.852161486043

     21   S      36             0.3258400    1.000000000000

     22   S      37             0.1027410    1.000000000000

     23   S      38             0.0360000    1.000000000000

 TOTAL NUMBER OF BASIS SET SHELLS             =   23
 NUMBER OF CARTESIAN GAUSSIAN BASIS FUNCTIONS =   49
 NUMBER OF ELECTRONS                          =    9
 CHARGE OF MOLECULE                           =    1
 SPIN MULTIPLICITY                            =    2
 NUMBER OF OCCUPIED ORBITALS (ALPHA)          =    5
 NUMBER OF OCCUPIED ORBITALS (BETA )          =    4
 TOTAL NUMBER OF ATOMS                        =    5
 THE NUCLEAR REPULSION ENERGY IS       13.4353882208

     $CONTRL OPTIONS
     ---------------
 SCFTYP=UHF          RUNTYP=ENERGY       EXETYP=RUN     
 MPLEVL=       0     CITYP =NONE         CCTYP =NONE         VBTYP =NONE    
 DFTTYP=NONE         TDDFT =NONE    
 MULT  =       2     ICHARG=       1     NZVAR =       0     COORD =UNIQUE  
 PP    =NONE         RELWFN=NONE         LOCAL =NONE         NUMGRD=       F
 ISPHER=      -1     NOSYM =       0     MAXIT =      30     UNITS =ANGS    
 PLTORB=       F     MOLPLT=       F     AIMPAC=       F     FRIEND=        
 NPRINT=       7     IREST =       0     GEOM  =INPUT   
 NORMF =       0     NORMP =       0     ITOL  =      20     ICUT  =       9
 INTTYP=BEST         GRDTYP=BEST         QMTTOL= 1.0E-06

     $SYSTEM OPTIONS
     ---------------
  REPLICATED MEMORY=    20000000 WORDS (ON EVERY NODE).
 DISTRIBUTED MEMDDI=           0 MILLION WORDS IN AGGREGATE,
 MEMDDI DISTRIBUTED OVER   1 PROCESSORS IS           0 WORDS/PROCESSOR.
 TOTAL MEMORY REQUESTED ON EACH PROCESSOR=    20000000 WORDS.
 TIMLIM=      525600.00 MINUTES, OR     365.0 DAYS.
 PARALL= F  BALTYP=  DLB     KDIAG=    0  COREFL= F
 MXSEQ2=     300 MXSEQ3=     150  mem10=         0

          ----------------
          PROPERTIES INPUT
          ----------------

     MOMENTS            FIELD           POTENTIAL          DENSITY
 IEMOM =       1   IEFLD =       0   IEPOT =       0   IEDEN =       0
 WHERE =COMASS     WHERE =NUCLEI     WHERE =NUCLEI     WHERE =NUCLEI  
 OUTPUT=BOTH       OUTPUT=BOTH       OUTPUT=BOTH       OUTPUT=BOTH    
 IEMINT=       0   IEFINT=       0                     IEDINT=       0
                                                       MORB  =       0
          EXTRAPOLATION IN EFFECT
          SOSCF IN EFFECT
          DIIS or SOSCF will be reset if energy rises
 ORBITAL PRINTING OPTION: NPREO=     1    49     2     1

     -------------------------------
     INTEGRAL TRANSFORMATION OPTIONS
     -------------------------------
     NWORD  =            0
     CUTOFF = 1.0E-09     MPTRAN =       0
     DIRTRF =       T     AOINTS =DUP     

          ----------------------
          INTEGRAL INPUT OPTIONS
          ----------------------
 NOPK  =       1 NORDER=       0 SCHWRZ=       T

     ------------------------------------------
     THE POINT GROUP IS C1 , NAXIS= 0, ORDER= 1
     ------------------------------------------

     DIMENSIONS OF THE SYMMETRY SUBSPACES ARE
 A   =   49

 ..... DONE SETTING UP THE RUN .....
 STEP CPU TIME =     0.00 TOTAL CPU TIME =          0.0 (      0.0 MIN)
 TOTAL WALL CLOCK TIME=          0.0 SECONDS, CPU UTILIZATION IS   100.00%

          ********************
          1 ELECTRON INTEGRALS
          ********************
 ...... END OF ONE-ELECTRON INTEGRALS ......
 STEP CPU TIME =     0.00 TOTAL CPU TIME =          0.0 (      0.0 MIN)
 TOTAL WALL CLOCK TIME=          0.0 SECONDS, CPU UTILIZATION IS   100.00%

          -------------
          GUESS OPTIONS
          -------------
          GUESS =HUCKEL            NORB  =       0          NORDER=       0
          MIX   =       F          PRTMO =       F          PUNMO =       F
          TOLZ  = 1.0E-08          TOLE  = 1.0E-05
          SYMDEN=       F          PURIFY=       F

 INITIAL GUESS ORBITALS GENERATED BY HUCKEL   ROUTINE.
 HUCKEL GUESS REQUIRES     21450 WORDS.

 SYMMETRIES FOR INITIAL GUESS ORBITALS FOLLOW.  ALPHA SET(S).
     5 ORBITALS ARE OCCUPIED (    1 CORE ORBITALS).
     2=A        3=A        4=A        5=A        6=A        7=A        8=A   
     9=A       10=A       11=A       12=A       13=A       14=A       15=A   

 SYMMETRIES FOR INITIAL GUESS ORBITALS FOLLOW.   BETA SET(S).
     4 ORBITALS ARE OCCUPIED (    1 CORE ORBITALS).
     2=A        3=A        4=A        5=A        6=A        7=A        8=A   
     9=A       10=A       11=A       12=A       13=A       14=A   
 ...... END OF INITIAL ORBITAL SELECTION ......
 STEP CPU TIME =     0.01 TOTAL CPU TIME =          0.0 (      0.0 MIN)
 TOTAL WALL CLOCK TIME=          0.0 SECONDS, CPU UTILIZATION IS   100.00%

                    ----------------------
                    AO INTEGRAL TECHNOLOGY
                    ----------------------
     S,P,L SHELL ROTATED AXIS INTEGRALS, REPROGRAMMED BY
        KAZUYA ISHIMURA (IMS) AND JOSE SIERRA (SYNSTAR).
     S,P,D,L SHELL ROTATED AXIS INTEGRALS PROGRAMMED BY
        KAZUYA ISHIMURA (INSTITUTE FOR MOLECULAR SCIENCE).
     S,P,D,F,G SHELL TO TOTAL QUARTET ANGULAR MOMENTUM SUM 5,
        ERIC PROGRAM BY GRAHAM FLETCHER (ELORET AND NASA ADVANCED
        SUPERCOMPUTING DIVISION, AMES RESEARCH CENTER).
     S,P,D,F,G,L SHELL GENERAL RYS QUADRATURE PROGRAMMED BY
        MICHEL DUPUIS (PACIFIC NORTHWEST NATIONAL LABORATORY).

          --------------------
          2 ELECTRON INTEGRALS
          --------------------

 DIRECT SCF METHOD SKIPS INTEGRAL STORAGE ON DISK.
 DIRECT TRANSFORMATION SKIPS AO INTEGRAL STORAGE ON DISK.
  ...... END OF TWO-ELECTRON INTEGRALS .....
 STEP CPU TIME =     0.00 TOTAL CPU TIME =          0.0 (      0.0 MIN)
 TOTAL WALL CLOCK TIME=          0.0 SECONDS, CPU UTILIZATION IS   100.00%

          ---------------------------
                  UHF SCF CALCULATION
          ---------------------------

     NUCLEAR ENERGY =        13.4353882208
     MAXIT = 30     NPUNCH=  2     MULT=  2
     EXTRAP=T  DAMP=F  SHIFT=F  RSTRCT=F  DIIS=F  SOSCF=T
     DENSITY MATRIX CONV=  2.00E-05
     SOSCF WILL OPTIMIZE     220 ALPHA AND     180 BETA ROTATION ANGLES.
     SOGTOL= 2.500E-01
     MEMORY REQUIRED FOR UHF/ROHF ITERS=     82246 WORDS.

 DIRECT SCF CALCULATION, SCHWRZ=T   FDIFF=T
 SCHWARZ INEQUALITY OVERHEAD:      1225 INTEGRALS, T=        0.00

                                                                                NONZERO     BLOCKS
 ITER EX      TOTAL ENERGY        E CHANGE  DENSITY CHANGE    ORB. GRAD       INTEGRALS    SKIPPED
   1  0      -39.5026695979   -39.5026695979   0.260754537   0.000000000         615572          0
          ---------------START SECOND ORDER SCF---------------
   2  1      -39.7024737973    -0.1998041994   0.074482182   0.040542515         615572          0
   3  2      -39.7139835995    -0.0115098022   0.029329671   0.013266560         615572          0
   4  3      -39.7154677090    -0.0014841095   0.007279086   0.002834069         615572          0
   5  4      -39.7156092179    -0.0001415089   0.002815451   0.000828235         615572          0
   6  5      -39.7156299388    -0.0000207209   0.000968128   0.000545115         615571          1
   7  6      -39.7156332065    -0.0000032677   0.000435549   0.000197047         615568          4
   8  7      -39.7156340615    -0.0000008550   0.000373965   0.000182416         615562         10
   9  8      -39.7156348825    -0.0000008210   0.000649631   0.000196518         615567          5
  10  9      -39.7156364532    -0.0000015707   0.001316314   0.000254793         615571          1
  11 10      -39.7156396059    -0.0000031528   0.003041542   0.000350128         615572          0
  12 11      -39.7156464765    -0.0000068706   0.008165764   0.000521895         615572          0
  13 12      -39.7156651967    -0.0000187201   0.028858326   0.001250892         615572          0
 NEXT ENERGY RISES: SWITCHING SOSCF OFF FOR  5 ITERS, NEW SOGTOL= 1.13E-03
  14 13      -39.7155598237     0.0001053730   0.003069030   0.004665063         615572          0
  15 14      -39.7158468580    -0.0002870343   0.001850239   0.003444707         615572          0
  16 15      -39.7159736528    -0.0001267948   0.001410766   0.003594434         615572          0
  17 16      -39.7160731822    -0.0000995294   0.001276207   0.003501093         615572          0
  18  0      -39.7161625272    -0.0000893450   0.023687605   0.003386314         615572          0
  19  1      -39.7164046868    -0.0002421596   0.010075883   0.014152344         615572          0
  20  2      -39.7173845592    -0.0009798724   0.002571160   0.002221933         615572          0
  21  0      -39.7174863715    -0.0001018123   0.001660033   0.001449734         615572          0
  22  0      -39.7175227458    -0.0000363743   0.002345382   0.001529077         615572          0
  23  1      -39.7175725291    -0.0000497833   0.001549926   0.001173867         615572          0
  24  2      -39.7176065894    -0.0000340603   0.000612693   0.001327821         615572          0
  25  0      -39.7176188591    -0.0000122697   0.000730201   0.001289684         615572          0
  26  1      -39.7176298748    -0.0000110157   0.000387840   0.001319048         615572          0
  27  2      -39.7176399619    -0.0000100871   0.000414113   0.001257956         615572          0
  28  0      -39.7176492297    -0.0000092678   0.010107918   0.001215231         615572          0
  29  1      -39.7176665671    -0.0000173375   0.002623552   0.004308534         615572          0
          ---------------START SECOND ORDER SCF---------------
  30  2      -39.7177833480    -0.0001167808   0.000747001   0.001098894         615572          0

 SCF IS UNCONVERGED, TOO MANY ITERATIONS
     TIME TO FORM FOCK OPERATORS=       1.0 SECONDS (       0.0 SEC/ITER)
     FOCK TIME ON FIRST ITERATION=       0.0, LAST ITERATION=       0.0
     TIME TO SOLVE SCF EQUATIONS=       0.0 SECONDS (       0.0 SEC/ITER)

 FINAL UHF ENERGY IS        0.0000000000 AFTER  30 ITERATIONS

          --------------------
          SPIN SZ   =    0.500
          S-SQUARED =    0.757
          --------------------

  ----- ALPHA SET ----- 

          ------------
          EIGENVECTORS
          ------------

                      1          2          3          4          5
                  -11.6061    -1.3696    -1.0192    -0.9066    -0.9062
                     A          A          A          A          A   
    1  C  1  S    0.563038  -0.105087   0.024134  -0.000263  -0.000239
    2  C  1  S    0.465952  -0.169783   0.040213  -0.000458  -0.000406
    3  C  1  X   -0.001657  -0.022840  -0.150671  -0.111300   0.076183
    4  C  1  Y   -0.001249  -0.016444  -0.108951   0.176862  -0.006058
    5  C  1  Z    0.000569   0.008034   0.054127   0.047054   0.200550
    6  C  1  S    0.006419   0.461975  -0.113186   0.001610   0.001272
    7  C  1  X    0.003504  -0.041231  -0.241061  -0.176589   0.120828
    8  C  1  Y    0.002675  -0.029622  -0.174310   0.280339  -0.009754
    9  C  1  Z   -0.001192   0.014577   0.086659   0.074538   0.318158
   10  C  1  S    0.001932   0.333450  -0.136597   0.002380   0.001792
   11  C  1  X   -0.000798  -0.009919  -0.130239  -0.127206   0.087131
   12  C  1  Y   -0.000603  -0.007023  -0.094216   0.201437  -0.007344
   13  C  1  Z    0.000273   0.003538   0.046951   0.053395   0.229375
   14  C  1  S   -0.000137   0.010308   0.005724   0.000272   0.000049
   15  C  1  X    0.000363   0.002033   0.027682   0.022920  -0.015630
   16  C  1  Y    0.000273   0.001402   0.019970  -0.036351   0.001251
   17  C  1  Z   -0.000124  -0.000737  -0.009996  -0.009718  -0.041304
   18  C  1 XX   -0.001026   0.036629   0.023185  -0.003503   0.001403
   19  C  1 YY   -0.001145   0.023343  -0.003629   0.013006  -0.024174
   20  C  1 ZZ   -0.001239   0.012442  -0.027012  -0.009461   0.022831
   21  C  1 XY    0.000203   0.023136   0.048435  -0.001032   0.023114
   22  C  1 XZ   -0.000097  -0.011432  -0.022915   0.027618   0.027019
   23  C  1 YZ   -0.000080  -0.008398  -0.017094  -0.034424   0.010329
   24  C  1 XXX  -0.001697  -0.007421  -0.016410  -0.013233   0.008988
   25  C  1 YYY  -0.001115   0.004540  -0.008266   0.018698  -0.003256
   26  C  1 ZZZ   0.000591   0.001781  -0.001757   0.004536   0.015582
   27  C  1 XXY  -0.000777  -0.014820  -0.015608   0.006314   0.004363
   28  C  1 XXZ   0.000349   0.006871   0.007870   0.007077   0.012544
   29  C  1 YYX  -0.000906  -0.011444  -0.009847   0.000024   0.003527
   30  C  1 YYZ   0.000106  -0.005642   0.008677  -0.002807   0.010223
   31  C  1 ZZX  -0.000487   0.010861  -0.007661  -0.006532   0.000974
   32  C  1 ZZY  -0.000525   0.000984  -0.001858   0.007237  -0.001223
   33  C  1 XYZ   0.000313   0.016683   0.001537  -0.001024   0.003804
   34  H  2  S    0.000329   0.135779   0.195211  -0.001212  -0.001032
   35  H  2  S   -0.000032   0.136396   0.277442  -0.002305  -0.001769
   36  H  2  S   -0.000811  -0.020131   0.030860  -0.000835  -0.000434
   37  H  2  S    0.000892   0.006936   0.052438  -0.000214  -0.000222
   38  H  3  S    0.000340   0.067837  -0.071762  -0.146147  -0.069238
   39  H  3  S   -0.000069   0.053203  -0.079362  -0.183282  -0.086874
   40  H  3  S   -0.000103  -0.020278  -0.002325  -0.020727  -0.009884
   41  H  3  S   -0.000185   0.000548  -0.020892  -0.060338  -0.028651
   42  H  4  S    0.000338   0.067340  -0.069440   0.013324   0.161166
   43  H  4  S   -0.000075   0.052308  -0.076340   0.016738   0.200538
   44  H  4  S   -0.000086  -0.020327  -0.002164   0.002028   0.021999
   45  H  4  S   -0.000205   0.000657  -0.020056   0.005288   0.067067
   46  H  5  S    0.000337   0.067484  -0.070139   0.133314  -0.091180
   47  H  5  S   -0.000078   0.052481  -0.077158   0.166070  -0.113433
   48  H  5  S   -0.000083  -0.020339  -0.002207   0.018272  -0.012309
   49  H  5  S   -0.000208   0.000694  -0.020346   0.055211  -0.038144

                      6          7          8          9         10
                   -0.1353    -0.0867    -0.0756    -0.0756    -0.0494
                     A          A          A          A          A   
    1  C  1  S   -0.037352  -0.006359  -0.000032  -0.000060   0.007082
    2  C  1  S   -0.063049  -0.010423  -0.000049  -0.000105   0.012681
    3  C  1  X   -0.024193   0.059012   0.039888  -0.001488   0.046737
    4  C  1  Y   -0.017623   0.043068  -0.042882   0.029369   0.033944
    5  C  1  Z    0.008402  -0.021231   0.023749   0.055758  -0.016519
    6  C  1  S    0.204260   0.043624   0.000206   0.000457  -0.025232
    7  C  1  X   -0.047573   0.118093   0.085291  -0.003191   0.061403
    8  C  1  Y   -0.034636   0.086153  -0.091734   0.062874   0.044600
    9  C  1  Z    0.016578  -0.042535   0.050805   0.119381  -0.021728
   10  C  1  S    0.711592   0.013480  -0.000129   0.000405  -0.278009
   11  C  1  X   -0.101185   0.165825   0.047231  -0.001885   0.499147
   12  C  1  Y   -0.073587   0.120909  -0.050153   0.033801   0.362124
   13  C  1  Z    0.035057  -0.059388   0.027817   0.064529  -0.176603
   14  C  1  S    2.104571   0.636051   0.004455   0.001917   0.198009
   15  C  1  X   -0.108263   0.407931   0.034188  -0.000630   2.107788
   16  C  1  Y   -0.078828   0.298040  -0.035235   0.023442   1.528014
   17  C  1  Z    0.037421  -0.144633   0.018520   0.041140  -0.745188
   18  C  1 XX    0.019279  -0.002742   0.001744  -0.000306   0.017381
   19  C  1 YY    0.013688   0.003792  -0.008498  -0.003572   0.000098
   20  C  1 ZZ    0.009002   0.009375   0.006850   0.003927  -0.015229
   21  C  1 XY    0.009819  -0.011703   0.004612   0.006152   0.031473
   22  C  1 XZ   -0.004843   0.005559  -0.001936   0.012956  -0.015008
   23  C  1 YZ   -0.003528   0.004093   0.011338  -0.003736  -0.011107
   24  C  1 XXX  -0.005826   0.007441   0.002854  -0.000150   0.008731
   25  C  1 YYY   0.000348   0.004081  -0.005279   0.001289   0.005837
   26  C  1 ZZZ   0.001592   0.000182   0.001321   0.004573  -0.005019
   27  C  1 XXY  -0.007689   0.006294  -0.000662   0.002417   0.001814
   28  C  1 XXZ   0.003585  -0.003143   0.000460   0.004746  -0.000849
   29  C  1 YYX  -0.006375   0.004293   0.001988  -0.000140   0.004355
   30  C  1 YYZ  -0.002181  -0.003454   0.003037   0.001552   0.001273
   31  C  1 ZZX   0.003908   0.003410   0.003093  -0.000005   0.001776
   32  C  1 ZZY  -0.000300   0.001124  -0.001831   0.002434   0.003311
   33  C  1 XYZ   0.007681  -0.000592   0.000829  -0.000110  -0.002080
   34  H  2  S   -0.007854  -0.007255   0.000037  -0.000219   0.085911
   35  H  2  S   -0.092126   0.068746   0.000394  -0.000250   0.280106
   36  H  2  S   -0.463088   0.120549   0.000407  -0.001772   1.759859
   37  H  2  S   -1.284217   2.693121   0.005658   0.014948   3.219928
   38  H  3  S   -0.004662   0.001882   0.008951  -0.016757  -0.019279
   39  H  3  S   -0.036675  -0.017400  -0.014404   0.026442  -0.036106
   40  H  3  S   -0.186147  -0.050330   0.139133  -0.262332  -0.476488
   41  H  3  S   -0.514032  -1.203710  -1.110749   2.048779  -1.214698
   42  H  4  S   -0.004806   0.001840   0.009865   0.016136  -0.018732
   43  H  4  S   -0.036759  -0.016671  -0.016332  -0.025800  -0.034715
   44  H  4  S   -0.185627  -0.050518   0.155151   0.254333  -0.467459
   45  H  4  S   -0.512583  -1.181380  -1.233566  -1.987338  -1.200402
   46  H  5  S   -0.004817   0.001938  -0.018795   0.000654  -0.018774
   47  H  5  S   -0.036980  -0.017059   0.030618  -0.000831  -0.034828
   48  H  5  S   -0.186826  -0.050086  -0.294752   0.009682  -0.467277
   49  H  5  S   -0.516073  -1.201782   2.332624  -0.079727  -1.197673

                     11         12         13         14         15
                   -0.0408    -0.0407     0.0003     0.0437     0.0703
                     A          A          A          A          A   
    1  C  1  S    0.000082  -0.000042   0.040907   0.005044   0.000052
    2  C  1  S    0.000141  -0.000076   0.071703   0.008438   0.000083
    3  C  1  X   -0.014820  -0.014250   0.031402  -0.123766  -0.100700
    4  C  1  Y    0.026602   0.005652   0.022850  -0.089929   0.122715
    5  C  1  Z    0.012769  -0.028760  -0.010934   0.044315  -0.032342
    6  C  1  S   -0.000279   0.000114  -0.206004  -0.043774  -0.000149
    7  C  1  X   -0.016148  -0.015381   0.047309  -0.148190  -0.097617
    8  C  1  Y    0.028944   0.006064   0.034474  -0.107650   0.118914
    9  C  1  Z    0.014006  -0.031199  -0.016504   0.053072  -0.031270
   10  C  1  S   -0.002373   0.001917  -1.006201   0.171961  -0.000787
   11  C  1  X   -0.211509  -0.205752   0.198809  -0.949641  -0.884057
   12  C  1  Y    0.380014   0.082323   0.144271  -0.689862   1.077540
   13  C  1  Z    0.180844  -0.413418  -0.069220   0.340160  -0.284353
   14  C  1  S   -0.000174  -0.000949  11.483649   5.048387   0.009133
   15  C  1  X   -1.443251  -1.411232  -0.708487   1.989314   1.390870
   16  C  1  Y    2.591485   0.563284  -0.514592   1.444729  -1.694455
   17  C  1  Z    1.234376  -2.834342   0.246949  -0.711408   0.445871
   18  C  1 XX    0.010970   0.009927  -0.014142  -0.001939   0.013540
   19  C  1 YY   -0.017785  -0.023716  -0.007502  -0.003372  -0.017628
   20  C  1 ZZ    0.006809   0.013752  -0.001920  -0.004493   0.004009
   21  C  1 XY   -0.007697   0.020262  -0.011677   0.002372  -0.000300
   22  C  1 XZ   -0.031578   0.025358   0.005761  -0.001221  -0.004038
   23  C  1 YZ    0.026053   0.020835   0.004186  -0.000871   0.015311
   24  C  1 XXX  -0.005952  -0.005833   0.009104  -0.024663  -0.023321
   25  C  1 YYY   0.006431  -0.000112  -0.000025  -0.016499   0.027376
   26  C  1 ZZZ   0.001409  -0.004281  -0.003031   0.005129  -0.005330
   27  C  1 XXY   0.001575  -0.000518   0.010951  -0.012617   0.008504
   28  C  1 XXZ   0.001859  -0.002493  -0.005099   0.006305  -0.000554
   29  C  1 YYX   0.003602  -0.000307   0.009551  -0.011982  -0.005422
   30  C  1 YYZ   0.001075  -0.002697   0.003608   0.007126  -0.007134
   31  C  1 ZZX  -0.001241   0.002704  -0.005707  -0.011654  -0.009545
   32  C  1 ZZY  -0.000094   0.002837   0.000791  -0.006460   0.011196
   33  C  1 XYZ   0.001018  -0.002473  -0.011411   0.000215  -0.002158
   34  H  2  S    0.000272  -0.000046   0.011138  -0.058914   0.000019
   35  H  2  S    0.000903  -0.000272   0.236359  -0.319515   0.000207
   36  H  2  S    0.006104  -0.001806  -0.300822  -2.243336   0.002777
   37  H  2  S    0.014264  -0.004299  -4.344789   4.841773  -0.007368
   38  H  3  S    0.055289  -0.014979   0.001578   0.008144   0.032946
   39  H  3  S    0.136684  -0.037068   0.140284   0.108166   0.183152
   40  H  3  S    1.370183  -0.371130  -0.761134   0.023647   1.288692
   41  H  3  S    4.338541  -1.179746  -1.730062  -2.863800  -3.209553
   42  H  4  S   -0.014620   0.055345   0.001736   0.007516   0.018607
   43  H  4  S   -0.035932   0.135695   0.140289   0.105162   0.102280
   44  H  4  S   -0.364025   1.372458  -0.760413   0.005824   0.723362
   45  H  4  S   -1.159922   4.358444  -1.729277  -2.809768  -1.796375
   46  H  5  S   -0.040691  -0.040480   0.001762   0.007781  -0.051597
   47  H  5  S   -0.100009  -0.099426   0.140619   0.106411  -0.284873
   48  H  5  S   -1.009526  -1.002207  -0.758613   0.015379  -2.018132
   49  H  5  S   -3.194054  -3.171844  -1.738049  -2.835731   5.006545

                     16         17         18         19         20
                    0.0705     0.1525     0.2448     0.2789     0.2792
                     A          A          A          A          A   
    1  C  1  S    0.000070  -0.044944  -0.005946  -0.000051   0.000054
    2  C  1  S    0.000128  -0.087917  -0.009358  -0.000075   0.000086
    3  C  1  X    0.015691   0.012220  -0.012611  -0.007674  -0.009279
    4  C  1  Y    0.053313   0.008806  -0.009218   0.014855   0.004887
    5  C  1  Z    0.152224  -0.004140   0.004426   0.008857  -0.016258
    6  C  1  S    0.000178   0.065905   0.049956   0.000490  -0.000461
    7  C  1  X    0.015113  -0.010371  -0.014418  -0.033587  -0.040413
    8  C  1  Y    0.051647  -0.007740  -0.010377   0.065014   0.021287
    9  C  1  Z    0.147432   0.003587   0.005032   0.038785  -0.070846
   10  C  1  S   -0.007250   3.819714  -0.199727  -0.003722   0.001344
   11  C  1  X    0.138174   0.172652  -0.816216   0.515433   0.612065
   12  C  1  Y    0.468142   0.124914  -0.595896  -0.996029  -0.320773
   13  C  1  Z    1.337070  -0.058693   0.289370  -0.594087   1.069139
   14  C  1  S   -0.049421  16.342406  -1.917087  -0.027177   0.013466
   15  C  1  X   -0.216602  -0.082595   1.507518  -0.811164  -0.961253
   16  C  1  Y   -0.736205  -0.058116   1.099584   1.567185   0.503510
   17  C  1  Z   -2.099150   0.027969  -0.534516   0.934778  -1.678516
   18  C  1 XX   -0.001847  -0.032982  -0.015805  -0.015521  -0.017512
   19  C  1 YY    0.000256  -0.039556   0.007558   0.023489   0.029109
   20  C  1 ZZ    0.001729  -0.045170   0.027978  -0.007735  -0.011772
   21  C  1 XY   -0.010701   0.011653  -0.042221   0.013706  -0.021254
   22  C  1 XZ   -0.021162  -0.005796   0.020284   0.040417  -0.028348
   23  C  1 YZ   -0.005026  -0.004249   0.014802  -0.025022  -0.029679
   24  C  1 XXX   0.003590   0.001445  -0.005363   0.003851   0.004428
   25  C  1 YYY   0.009577   0.004172  -0.004425  -0.006300  -0.005123
   26  C  1 ZZZ   0.028181   0.000182   0.001906  -0.002988   0.003660
   27  C  1 XXY   0.007868  -0.002729  -0.001128  -0.002783   0.002953
   28  C  1 XXZ   0.018668   0.001212   0.000584  -0.006498   0.005060
   29  C  1 YYX   0.003485  -0.001991  -0.001964  -0.000987   0.001249
   30  C  1 YYZ   0.013471  -0.003447   0.001219   0.002028   0.005377
   31  C  1 ZZX  -0.001086   0.005815  -0.003143   0.003206   0.001601
   32  C  1 ZZY   0.003833   0.001264  -0.001947  -0.003027  -0.000714
   33  C  1 XYZ   0.002671   0.005855  -0.000824   0.000341   0.002662
   34  H  2  S    0.000340  -0.050340  -0.102935  -0.000208   0.000194
   35  H  2  S    0.002022  -0.133032  -1.514265  -0.003291   0.003270
   36  H  2  S    0.018517  -2.837116   2.681536   0.008571  -0.006828
   37  H  2  S   -0.020425  -2.891188   1.521843   0.006174  -0.003486
   38  H  3  S    0.040453  -0.054940   0.018676  -0.063611   0.010789
   39  H  3  S    0.223878  -0.080405   0.378695  -1.365514   0.231388
   40  H  3  S    1.585992  -3.561962  -0.366014   1.909404  -0.323550
   41  H  3  S   -3.909741  -2.186113  -0.140462   1.379860  -0.235690
   42  H  4  S   -0.048801  -0.055044   0.018252   0.022330  -0.060246
   43  H  4  S   -0.269853  -0.079115   0.373218   0.481611  -1.298280
   44  H  4  S   -1.907588  -3.571600  -0.356210  -0.667546   1.804365
   45  H  4  S    4.756412  -2.179205  -0.136945  -0.483340   1.312676
   46  H  5  S    0.008552  -0.054949   0.018492   0.041032   0.049651
   47  H  5  S    0.045999  -0.078898   0.376654   0.882458   1.066943
   48  H  5  S    0.333082  -3.566187  -0.360906  -1.226539  -1.485600
   49  H  5  S   -0.793688  -2.186817  -0.141326  -0.887414  -1.081150

                     21         22         23         24         25
                    0.5134     0.5626     0.5645     0.5647     0.6517
                     A          A          A          A          A   
    1  C  1  S    0.020518   0.006601   0.000012  -0.000638   0.103736
    2  C  1  S    0.029510   0.022204  -0.000202  -0.002619   0.129263
    3  C  1  X    0.177973  -0.064356   0.155602  -0.017768  -0.033413
    4  C  1  Y    0.129507  -0.030516  -0.152884   0.142048  -0.024187
    5  C  1  Z   -0.063334   0.051036   0.120564   0.201943   0.011371
    6  C  1  S   -0.224795   0.400048  -0.008390  -0.055801  -1.997848
    7  C  1  X    0.789694  -0.290207   0.681830  -0.076772  -0.148768
    8  C  1  Y    0.574381  -0.139925  -0.669682   0.622953  -0.107744
    9  C  1  Z   -0.281234   0.226369   0.528225   0.884279   0.050528
   10  C  1  S    0.527863  -2.440343   0.045211   0.330877   6.717617
   11  C  1  X   -1.736064   0.528646  -1.390523   0.165337   0.298074
   12  C  1  Y   -1.262515   0.238184   1.367157  -1.264445   0.216039
   13  C  1  Z    0.617808  -0.440715  -1.077864  -1.806481  -0.101383
   14  C  1  S    4.558576   9.337042  -0.132915  -1.202724   3.816503
   15  C  1  X    1.078421  -0.258511   0.784528  -0.098763  -0.152736
   16  C  1  Y    0.784555  -0.104645  -0.772375   0.710305  -0.110512
   17  C  1  Z   -0.383135   0.235523   0.608257   1.021389   0.052051
   18  C  1 XX   -0.050522   0.054044  -0.021845  -0.003888  -0.370723
   19  C  1 YY   -0.047576   0.060496   0.030883  -0.013666  -0.359183
   20  C  1 ZZ   -0.045385   0.066521  -0.013063  -0.008261  -0.349468
   21  C  1 XY   -0.004803  -0.014905  -0.009395  -0.018019  -0.020285
   22  C  1 XZ    0.002561   0.000471  -0.003801  -0.043080   0.010128
   23  C  1 YZ    0.001845   0.004586  -0.033229   0.004520   0.007430
   24  C  1 XXX   0.004140   0.001547   0.010677  -0.001950  -0.001155
   25  C  1 YYY  -0.001041  -0.003768  -0.004719   0.006990   0.001803
   26  C  1 ZZZ  -0.001261  -0.004520   0.002858   0.004561   0.002473
   27  C  1 XXY   0.006263   0.003946  -0.000019   0.001760  -0.001847
   28  C  1 XXZ  -0.002945  -0.000932   0.000964   0.004590   0.000788
   29  C  1 YYX   0.005158   0.006221  -0.003119   0.003747  -0.002788
   30  C  1 YYZ   0.002326   0.009826   0.002336   0.001410  -0.004246
   31  C  1 ZZX  -0.004029  -0.011587  -0.001941  -0.002240   0.004921
   32  C  1 ZZY   0.000034  -0.000351  -0.002815  -0.002535  -0.000138
   33  C  1 XYZ  -0.006945  -0.012183   0.002440   0.004843   0.005823
   34  H  2  S    0.112232   0.046776  -0.000597  -0.005696   0.034749
   35  H  2  S    0.878741   0.986629  -0.014657  -0.125772  -0.044325
   36  H  2  S   -3.415689  -0.695507   0.006523   0.075928  -1.819389
   37  H  2  S    2.305414  -2.275321   0.034568   0.305408  -0.726003
   38  H  3  S    0.009602   0.080982  -0.028195   0.061153   0.052637
   39  H  3  S    0.346360   1.486776  -0.228325   0.353467   0.113808
   40  H  3  S   -0.378478  -2.250668   0.888989  -1.984274  -2.440860
   41  H  3  S   -1.593573  -0.784423  -0.949524   2.639650  -0.098366
   42  H  4  S    0.010153   0.063594  -0.049040  -0.067840   0.052802
   43  H  4  S    0.351249   1.358149  -0.388748  -0.633451   0.116098
   44  H  4  S   -0.396825  -1.704019   1.549934   2.111408  -2.447001
   45  H  4  S   -1.574769  -1.400713  -1.685014  -1.935332  -0.093254
   46  H  5  S    0.009936   0.071641   0.074197  -0.021338   0.052620
   47  H  5  S    0.348915   1.418207   0.554078  -0.276835   0.114377
   48  H  5  S   -0.388167  -1.956399  -2.360049   0.635230  -2.440597
   49  H  5  S   -1.583494  -1.117201   2.681113  -0.288709  -0.099603

                     26         27         28         29         30
                    1.1214     1.1221     1.4586     1.5185     1.5191
                     A          A          A          A          A   
    1  C  1  S    0.000055  -0.000083  -0.007677  -0.000015   0.000048
    2  C  1  S    0.000106  -0.000135  -0.017195  -0.000042   0.000113
    3  C  1  X   -0.006241  -0.006281   0.011670  -0.024728  -0.021493
    4  C  1  Y    0.002595   0.011178   0.008594   0.042288   0.006669
    5  C  1  Z   -0.012228   0.005464  -0.004039   0.017289  -0.047056
    6  C  1  S   -0.000526   0.000813   0.065346   0.000077  -0.000392
    7  C  1  X   -0.008237  -0.008300   0.010642  -0.022859  -0.019854
    8  C  1  Y    0.003458   0.014680   0.007790   0.039071   0.006165
    9  C  1  Z   -0.016182   0.007191  -0.003691   0.015972  -0.043462
   10  C  1  S    0.000119  -0.000777  -0.051137  -0.000070   0.000147
   11  C  1  X   -0.024244  -0.024419   0.729774  -0.439503  -0.378485
   12  C  1  Y    0.009819   0.044038   0.533835   0.748476   0.118356
   13  C  1  Z   -0.047218   0.021474  -0.256387   0.306825  -0.830777
   14  C  1  S    0.001295  -0.001724   0.398868   0.002212  -0.002367
   15  C  1  X    0.022823   0.023002  -0.618292   0.364413   0.313659
   16  C  1  Y   -0.009289  -0.041364  -0.452196  -0.620459  -0.098101
   17  C  1  Z    0.044532  -0.020197   0.217285  -0.254415   0.688611
   18  C  1 XX   -0.637170  -0.633490  -0.473070  -0.159665  -0.122037
   19  C  1 YY   -0.142830   0.775553   0.000302   0.338599   0.616205
   20  C  1 ZZ    0.780110  -0.141855   0.413201  -0.179221  -0.493725
   21  C  1 XY    0.182191   0.367043  -0.851581   0.096094  -0.560051
   22  C  1 XZ   -0.347958   0.061649   0.411173   0.758681  -0.625606
   23  C  1 YZ   -0.394232   0.423335   0.298486  -0.773903  -0.410123
   24  C  1 XXX   0.013424   0.013337   0.086927  -0.027625  -0.023492
   25  C  1 YYY   0.002974  -0.007149   0.044043   0.066832   0.016603
   26  C  1 ZZZ  -0.004420   0.003368  -0.003976   0.034101  -0.087177
   27  C  1 XXY   0.005521   0.002122   0.072977   0.036107   0.010350
   28  C  1 XXZ   0.002127  -0.005260  -0.035375   0.008987  -0.035048
   29  C  1 YYX  -0.003602  -0.019746   0.053692  -0.041947  -0.019371
   30  C  1 YYZ   0.002689   0.001228  -0.029605   0.014422  -0.034692
   31  C  1 ZZX  -0.015004   0.001207   0.029385  -0.020056  -0.034051
   32  C  1 ZZY  -0.009249   0.008447   0.013822   0.042651  -0.006003
   33  C  1 XYZ   0.010828  -0.003936  -0.016974  -0.003954   0.012204
   34  H  2  S   -0.000041   0.000082  -0.393601   0.000449   0.000036
   35  H  2  S   -0.000227  -0.000454   2.057331  -0.001850  -0.000398
   36  H  2  S   -0.000128   0.000793  -1.196183   0.000843   0.000452
   37  H  2  S    0.000122   0.000037  -0.616929   0.000231   0.000367
   38  H  3  S    0.000930  -0.003815   0.088738  -0.282073   0.094539
   39  H  3  S   -0.023987   0.095269  -0.563760   1.684270  -0.563871
   40  H  3  S    0.014888  -0.059252   0.271165  -0.908892   0.304403
   41  H  3  S    0.008669  -0.034903   0.131372  -0.500230   0.167627
   42  H  4  S   -0.003850   0.001071   0.088738   0.058895  -0.290780
   43  H  4  S    0.094898  -0.026337  -0.565527  -0.352364   1.738010
   44  H  4  S   -0.059804   0.016829   0.271877   0.189756  -0.936781
   45  H  4  S   -0.034687   0.009897   0.132207   0.104500  -0.516247
   46  H  5  S    0.002779   0.002827   0.089110   0.222281   0.197019
   47  H  5  S   -0.069641  -0.069743  -0.566915  -1.328045  -1.175873
   48  H  5  S    0.043614   0.044030   0.272669   0.715979   0.634307
   49  H  5  S    0.025214   0.025782   0.132573   0.394309   0.349542

                     31         32         33         34         35
                    2.1151     2.2540     2.2929     2.2934     2.6126
                     A          A          A          A          A   
    1  C  1  S   -0.034960  -0.019944   0.000162  -0.000245   0.000004
    2  C  1  S   -0.110087  -0.061508   0.000521  -0.000763   0.000022
    3  C  1  X   -0.129342   0.242819   0.153960   0.137116   0.056435
    4  C  1  Y   -0.094553   0.175976  -0.267227  -0.041489  -0.089106
    5  C  1  Z    0.044885  -0.088959  -0.109374   0.293834  -0.025389
    6  C  1  S    0.152113   0.099087  -0.000848   0.001262  -0.000049
    7  C  1  X    0.060817  -0.130971  -0.085807  -0.076419  -0.004488
    8  C  1  Y    0.044360  -0.094883   0.148755   0.023179   0.007196
    9  C  1  Z   -0.021166   0.048007   0.060920  -0.163869   0.001974
   10  C  1  S   -0.215265  -0.113597   0.000775  -0.001127  -0.000152
   11  C  1  X   -0.186565   0.267535   0.153840   0.136979   0.057503
   12  C  1  Y   -0.136345   0.193858  -0.266994  -0.041429  -0.090797
   13  C  1  Z    0.064814  -0.097954  -0.109235   0.293358  -0.025835
   14  C  1  S    5.551515   2.793317  -0.022944   0.032968  -0.000182
   15  C  1  X    0.012390   0.033029   0.038126   0.033814  -0.031415
   16  C  1  Y    0.009036   0.023868  -0.065950  -0.010339   0.049523
   17  C  1  Z   -0.004340  -0.012314  -0.027165   0.073024   0.014124
   18  C  1 XX   -0.155720  -0.274438   0.055778   0.039553  -0.015432
   19  C  1 YY   -0.265871  -0.135894  -0.102818  -0.169510   0.019095
   20  C  1 ZZ   -0.362991  -0.017615   0.050824   0.124589  -0.003458
   21  C  1 XY    0.198567  -0.249663  -0.030960   0.150501   0.007551
   22  C  1 XZ   -0.096672   0.115836  -0.211900   0.177959   0.010240
   23  C  1 YZ   -0.069826   0.087491   0.207548   0.120655  -0.006119
   24  C  1 XXX   0.100916  -0.065609   0.226158   0.210304  -0.493412
   25  C  1 YYY  -0.106380  -0.049311   0.006629   0.359358   0.315208
   26  C  1 ZZZ   0.054935  -0.266855   0.120794  -0.024067  -0.030141
   27  C  1 XXY   0.318789  -0.255387   0.082197  -0.165092  -0.160113
   28  C  1 XXZ  -0.151130   0.136099   0.256555  -0.235814   0.610205
   29  C  1 YYX   0.189080  -0.017787  -0.348329  -0.081899   0.746211
   30  C  1 YYZ   0.018601   0.347613  -0.263618  -0.148702  -0.524275
   31  C  1 ZZX  -0.155274  -0.237239  -0.173364  -0.394748  -0.185380
   32  C  1 ZZY  -0.052401   0.072900   0.287725  -0.258120  -0.103147
   33  C  1 XYZ  -0.254262  -0.179334  -0.142494   0.075402  -0.075137
   34  H  2  S   -0.944697   0.543570  -0.002829   0.003800  -0.000195
   35  H  2  S    1.943963  -0.437466   0.001423  -0.001659   0.000138
   36  H  2  S   -2.068716   0.446972  -0.001283   0.001490   0.000078
   37  H  2  S   -0.472622  -0.812752   0.005695  -0.008076  -0.000231
   38  H  3  S   -0.373869  -0.549617  -0.791898   0.257567  -0.013196
   39  H  3  S    1.235366   1.120167   1.159298  -0.374275   0.034466
   40  H  3  S   -1.261377  -1.143227  -1.149891   0.370858  -0.079160
   41  H  3  S   -0.837391  -0.226029   0.388885  -0.130854   0.100537
   42  H  4  S   -0.371424  -0.532998   0.173815  -0.826093   0.001387
   43  H  4  S    1.232356   1.096259  -0.257636   1.216202  -0.003552
   44  H  4  S   -1.257966  -1.118958   0.255736  -1.206569   0.008041
   45  H  4  S   -0.838843  -0.234556  -0.080204   0.395130  -0.010035
   46  H  5  S   -0.372994  -0.542883   0.629993   0.551808   0.012071
   47  H  5  S    1.234231   1.110393  -0.926860  -0.806042  -0.031213
   48  H  5  S   -1.260100  -1.133296   0.919787   0.799232   0.071349
   49  H  5  S   -0.837921  -0.229525  -0.302054  -0.273907  -0.090193

                     36         37         38         39         40
                    2.6130     2.6734     2.7335     2.7468     2.7473
                     A          A          A          A          A   
    1  C  1  S    0.000006  -0.000000  -0.011502   0.000251  -0.000162
    2  C  1  S    0.000024  -0.000002  -0.043979   0.000965  -0.000602
    3  C  1  X   -0.038630  -0.001441  -0.622912   0.389929   0.340131
    4  C  1  Y    0.004954   0.001849  -0.450979  -0.171608  -0.654538
    5  C  1  Z   -0.102466  -0.000265   0.237802   0.697206  -0.351377
    6  C  1  S   -0.000057   0.000004   0.112794  -0.002478   0.001572
    7  C  1  X    0.003459   0.000374   0.103047  -0.084673  -0.074616
    8  C  1  Y   -0.000327  -0.000461   0.074386   0.037879   0.142519
    9  C  1  Z    0.008568   0.000107  -0.040131  -0.152409   0.076753
   10  C  1  S   -0.000107   0.000011   0.297537  -0.006578   0.003912
   11  C  1  X   -0.039469  -0.001640  -0.703688   0.435295   0.379515
   12  C  1  Y    0.005072   0.002093  -0.509500  -0.191474  -0.730492
   13  C  1  Z   -0.104591  -0.000327   0.268441   0.778012  -0.392041
   14  C  1  S   -0.000258   0.000001   0.016406  -0.000171   0.000039
   15  C  1  X    0.021377   0.000806   0.387463  -0.231264  -0.201267
   16  C  1  Y   -0.002809  -0.001034   0.280624   0.101461   0.387855
   17  C  1  Z    0.056915   0.000151  -0.147408  -0.412754   0.207975
   18  C  1 XX    0.010891  -0.000107  -0.106191   0.001655  -0.001486
   19  C  1 YY   -0.003492   0.000123  -0.109395  -0.020149  -0.003954
   20  C  1 ZZ   -0.007208  -0.000029  -0.111188   0.025634   0.001119
   21  C  1 XY    0.006497  -0.000013   0.005549   0.019694  -0.002350
   22  C  1 XZ    0.016456   0.000053  -0.001821   0.015163  -0.026935
   23  C  1 YZ    0.012852  -0.000188  -0.001901   0.013532   0.027574
   24  C  1 XXX   0.331632   0.010288   0.588988  -0.619845  -0.536779
   25  C  1 YYY  -0.254169  -0.439661   0.543457  -0.249665   0.707792
   26  C  1 ZZZ  -0.408414   0.312270  -0.599581  -0.780130   0.255269
   27  C  1 XXY   0.554834  -0.193765  -0.250554   0.330223   0.203322
   28  C  1 XXZ   0.486161  -0.373241   0.131964  -0.070646  -0.224197
   29  C  1 YYX   0.031691   0.411608   0.177588  -0.068640   0.116182
   30  C  1 YYZ   0.245167  -0.045263   0.235118  -0.099868   0.495125
   31  C  1 ZZX  -0.407730  -0.422983   0.181901   0.218334   0.010694
   32  C  1 ZZY  -0.222863   0.780519   0.354216   0.303708  -0.009185
   33  C  1 XYZ   0.555651   0.354959  -0.017308   0.003305   0.160873
   34  H  2  S   -0.000458   0.000001  -0.040579   0.000827  -0.000567
   35  H  2  S    0.000279  -0.000001   0.143785  -0.002724   0.001932
   36  H  2  S    0.000276  -0.000001  -0.694803   0.013290  -0.009275
   37  H  2  S   -0.000744  -0.000001   0.925048  -0.017485   0.012421
   38  H  3  S   -0.006317   0.000596   0.018702   0.025318  -0.119933
   39  H  3  S    0.016191  -0.000870  -0.065688  -0.048827   0.234369
   40  H  3  S   -0.037012   0.001663   0.166975   0.137006  -0.657302
   41  H  3  S    0.046918  -0.001824  -0.313993  -0.175451   0.851296
   42  H  4  S    0.015808   0.000320   0.014069  -0.117428   0.038460
   43  H  4  S   -0.039391  -0.000425  -0.056419   0.230385  -0.075563
   44  H  4  S    0.088651   0.000719   0.140625  -0.644099   0.211009
   45  H  4  S   -0.111182  -0.000733  -0.279724   0.836863  -0.274651
   46  H  5  S   -0.008944  -0.000917   0.017247   0.091045   0.082233
   47  H  5  S    0.022664   0.001295  -0.062791  -0.177696  -0.161493
   48  H  5  S   -0.051555  -0.002390   0.158839   0.498634   0.452762
   49  H  5  S    0.065132   0.002560  -0.303452  -0.644644  -0.588605

                     41         42         43         44         45
                    3.0055     3.5173     3.6088     3.6094     4.2330
                     A          A          A          A          A   
    1  C  1  S   -0.157185  -0.005101  -0.000027   0.000056   0.054467
    2  C  1  S   -0.609046  -0.017057  -0.000085   0.000202   0.221479
    3  C  1  X    0.050015  -0.292439   0.193013   0.146445  -0.021443
    4  C  1  Y    0.036393  -0.213251  -0.315832  -0.028611  -0.015677
    5  C  1  Z   -0.017368   0.103442  -0.105314   0.354609   0.007316
    6  C  1  S    1.588817   0.083313   0.000390  -0.000893  -1.026858
    7  C  1  X   -0.034002  -0.263700   0.156452   0.118577  -0.008139
    8  C  1  Y   -0.025013  -0.192322  -0.255979  -0.023257  -0.005902
    9  C  1  Z    0.011722   0.093377  -0.085336   0.287308   0.002781
   10  C  1  S    3.942409   0.007634   0.000068  -0.000325  -0.503155
   11  C  1  X    0.049871  -0.174735   0.118710   0.090084  -0.012974
   12  C  1  Y    0.036316  -0.127409  -0.194244  -0.017593  -0.009481
   13  C  1  Z   -0.017321   0.061814  -0.064777   0.218135   0.004419
   14  C  1  S    0.599943  -0.118235  -0.000417   0.001054   1.912331
   15  C  1  X   -0.025123   0.181858  -0.123326  -0.093594   0.014012
   16  C  1  Y   -0.018292   0.132607   0.201780   0.018314   0.010241
   17  C  1  Z    0.008716  -0.064357   0.067270  -0.226655  -0.004772
   18  C  1 XX   -1.526853  -0.245989  -0.086483  -0.057374   0.607015
   19  C  1 YY   -1.526777  -0.033082   0.183056   0.269930   0.627390
   20  C  1 ZZ   -1.526703   0.152255  -0.097158  -0.211041   0.645494
   21  C  1 XY   -0.000122  -0.383555   0.031600  -0.257508  -0.036744
   22  C  1 XZ   -0.000012   0.183732   0.329801  -0.314342   0.018137
   23  C  1 YZ   -0.000011   0.134669  -0.362257  -0.170892   0.013002
   24  C  1 XXX  -0.078772   0.417951   0.175090   0.150263  -0.130179
   25  C  1 YYY   0.067420   0.109276   0.340153   0.545894   0.302513
   26  C  1 ZZZ   0.096271   0.364408   0.272551  -0.389113   0.204453
   27  C  1 XXY  -0.117876   0.781472   0.239056  -0.224687  -0.385526
   28  C  1 XXZ   0.051939  -0.386951   0.384126  -0.512486   0.172160
   29  C  1 YYX  -0.141602   0.324578  -0.611223  -0.147678  -0.394641
   30  C  1 YYZ  -0.164802  -0.510692  -0.341384  -0.341194  -0.473613
   31  C  1 ZZX   0.200504   0.269331  -0.372479  -0.621894   0.648909
   32  C  1 ZZY  -0.006298  -0.086114   0.529652  -0.396445   0.037834
   33  C  1 XYZ   0.257921  -0.019933  -0.201411   0.137121   0.784697
   34  H  2  S    0.002335   1.250199   0.001184  -0.002511  -0.676576
   35  H  2  S   -0.043568  -0.853185  -0.000808   0.001718   0.547144
   36  H  2  S   -0.803891   0.428912   0.000429  -0.000878  -0.408260
   37  H  2  S   -0.024228   0.166174   0.000191  -0.000452  -0.259072
   38  H  3  S   -0.017511  -0.348523   1.081578  -0.441999  -0.814644
   39  H  3  S   -0.008140   0.237078  -0.734627   0.300220   0.633051
   40  H  3  S   -0.877022  -0.101950   0.358217  -0.146463  -0.450920
   41  H  3  S    0.060999  -0.034227   0.140089  -0.057313  -0.273568
   42  H  4  S   -0.017528  -0.344904  -0.158112   1.158335  -0.816098
   43  H  4  S   -0.008003   0.234614   0.107392  -0.786744   0.633950
   44  H  4  S   -0.877241  -0.100722  -0.052297   0.383607  -0.451384
   45  H  4  S    0.061268  -0.033816  -0.020482   0.149839  -0.273697
   46  H  5  S   -0.017511  -0.347398  -0.923883  -0.715808  -0.815060
   47  H  5  S   -0.008150   0.236303   0.627481   0.486167   0.633260
   48  H  5  S   -0.876966  -0.101579  -0.305932  -0.237199  -0.451034
   49  H  5  S    0.060941  -0.034082  -0.119567  -0.092676  -0.273601

                     46         47         48         49
                    9.1077     9.1465     9.1465    27.3033
                     A          A          A          A   
    1  C  1  S   -0.002130  -0.000005  -0.000024  -2.115216
    2  C  1  S   -0.000052  -0.000001  -0.000005   2.569602
    3  C  1  X   -2.948711  -2.309221   0.648025   0.001978
    4  C  1  Y   -2.153069   2.091558  -2.330562   0.001456
    5  C  1  Z    1.060463  -2.174475  -2.929861  -0.000689
    6  C  1  S    0.004105   0.000012   0.000046  -1.094624
    7  C  1  X   12.223387   9.579480  -2.688230  -0.008481
    8  C  1  Y    8.925185  -8.676536   9.667973  -0.006246
    9  C  1  Z   -4.395982   9.020528  12.154102   0.002948
   10  C  1  S    0.008103   0.000054   0.000091  -1.129000
   11  C  1  X   -1.683322  -1.318465   0.369992   0.001146
   12  C  1  Y   -1.229120   1.194193  -1.330649   0.000845
   13  C  1  Z    0.605387  -1.241539  -1.672827  -0.000398
   14  C  1  S    0.005210   0.000059   0.000081  -0.237067
   15  C  1  X    0.648544   0.508195  -0.142612  -0.000447
   16  C  1  Y    0.473551  -0.460297   0.512892  -0.000329
   17  C  1  Z   -0.233244   0.478547   0.644786   0.000158
   18  C  1 XX   -0.048642   0.021615  -0.007724   0.658073
   19  C  1 YY   -0.001144  -0.069085  -0.002313   0.657991
   20  C  1 ZZ    0.039611   0.047423   0.009914   0.657920
   21  C  1 XY   -0.085344   0.038841   0.038012   0.000147
   22  C  1 XZ    0.040470   0.011743   0.096003  -0.000072
   23  C  1 YZ    0.029781   0.075071  -0.038808  -0.000052
   24  C  1 XXX  -6.280514  -4.950668   1.388666  -0.002590
   25  C  1 YYY  -4.593740   4.441487  -4.987826   0.016208
   26  C  1 ZZZ   2.284274  -4.643765  -6.244178   0.006227
   27  C  1 XXY  -2.020911   2.002781  -2.212810  -0.017958
   28  C  1 XXZ   0.995049  -2.071092  -2.771583   0.008080
   29  C  1 YYX  -2.803376  -2.184551   0.599816  -0.016348
   30  C  1 YYZ   0.986577  -2.055989  -2.806265  -0.019819
   31  C  1 ZZX  -2.802088  -2.172559   0.623702   0.029562
   32  C  1 ZZY  -2.061472   2.000703  -2.196041   0.003385
   33  C  1 XYZ   0.002123   0.000651  -0.012208   0.034473
   34  H  2  S   -0.053582  -0.000205  -0.000246  -0.054786
   35  H  2  S    0.574464   0.002184   0.002641   0.008265
   36  H  2  S   -1.300387  -0.004948  -0.005992   0.259171
   37  H  2  S    1.538367   0.005834   0.007061  -0.003505
   38  H  3  S    0.018075   0.012776  -0.048529  -0.054754
   39  H  3  S   -0.192730  -0.137197   0.521185   0.008847
   40  H  3  S    0.434071   0.310448  -1.179409   0.257911
   41  H  3  S   -0.518444  -0.368588   1.400129  -0.002026
   42  H  4  S    0.017601   0.035811   0.035392  -0.054753
   43  H  4  S   -0.187632  -0.384586  -0.380070   0.008850
   44  H  4  S    0.422544   0.870283   0.860056   0.257900
   45  H  4  S   -0.504766  -1.033226  -1.021101  -0.002021
   46  H  5  S    0.018021  -0.048381   0.013383  -0.054754
   47  H  5  S   -0.192166   0.519619  -0.143719   0.008850
   48  H  5  S    0.432803  -1.175877   0.325203   0.257902
   49  H  5  S   -0.516940   1.395954  -0.386123  -0.002017

  ----- BETA SET ----- 

          ------------
          EIGENVECTORS
          ------------

                      1          2          3          4          5
                  -11.5966    -1.2446    -0.8863    -0.8861    -0.4375
                     A          A          A          A          A   
    1  C  1  S    0.563664  -0.107632   0.000014   0.000193  -0.005295
    2  C  1  S    0.466335  -0.175021   0.000023   0.000335  -0.008886
    3  C  1  X   -0.001531   0.003056   0.122158  -0.058583  -0.132727
    4  C  1  Y   -0.001132   0.002222  -0.093491   0.150915  -0.096387
    5  C  1  Z    0.000539  -0.001143   0.149856   0.141736   0.047916
    6  C  1  S    0.003774   0.472512  -0.000095  -0.001169   0.022745
    7  C  1  X    0.003321  -0.004433   0.191715  -0.091982  -0.191653
    8  C  1  Y    0.002442  -0.003451  -0.146736   0.237057  -0.139187
    9  C  1  Z   -0.001182   0.001306   0.235156   0.222566   0.069167
   10  C  1  S    0.001421   0.390469  -0.000056  -0.001506   0.028003
   11  C  1  X   -0.000572  -0.020499   0.144553  -0.069499  -0.202389
   12  C  1  Y   -0.000422  -0.014983  -0.110522   0.179052  -0.146899
   13  C  1  Z    0.000203   0.006968   0.177210   0.168130   0.072967
   14  C  1  S   -0.000126   0.000640  -0.000038  -0.000012  -0.002775
   15  C  1  X    0.000192   0.001382  -0.024060   0.011527   0.005998
   16  C  1  Y    0.000142   0.001018   0.018415  -0.029761   0.004404
   17  C  1  Z   -0.000069  -0.000458  -0.029517  -0.027936  -0.002154
   18  C  1 XX   -0.000970   0.011204  -0.003341   0.001032   0.012415
   19  C  1 YY   -0.000557   0.021084  -0.024274  -0.006920  -0.000483
   20  C  1 ZZ   -0.000211   0.028953   0.027606   0.005845  -0.011700
   21  C  1 XY   -0.000733  -0.017099   0.021004   0.007648   0.023428
   22  C  1 XZ    0.000361   0.008541   0.006582   0.032647  -0.010921
   23  C  1 YZ    0.000267   0.006271   0.022340  -0.026548  -0.008170
   24  C  1 XXX  -0.001502  -0.000672   0.009027  -0.004371  -0.013449
   25  C  1 YYY  -0.001034   0.005410  -0.010106   0.012967  -0.009998
   26  C  1 ZZZ   0.000678   0.004605   0.014000   0.013893   0.004596
   27  C  1 XXY  -0.000460  -0.003622  -0.003760   0.006768  -0.004405
   28  C  1 XXZ   0.000219   0.001551   0.006685   0.006752   0.002184
   29  C  1 YYX  -0.000737  -0.005383   0.006599  -0.004748  -0.005932
   30  C  1 YYZ   0.000018  -0.009513   0.007021   0.005236   0.002658
   31  C  1 ZZX  -0.000462   0.011576   0.007736  -0.002024  -0.006473
   32  C  1 ZZY  -0.000514   0.000408  -0.002941   0.008437  -0.004303
   33  C  1 XYZ   0.000209   0.012791  -0.000638  -0.001108  -0.000510
   34  H  2  S    0.000204   0.059032  -0.000659  -0.001006   0.165057
   35  H  2  S    0.000192   0.018919  -0.000747  -0.000999   0.229395
   36  H  2  S   -0.000812  -0.035171  -0.000021   0.000002   0.162245
   37  H  2  S    0.000616   0.010050  -0.000324  -0.000483   0.054898
   38  H  3  S    0.000239   0.082421   0.012932  -0.157210  -0.055477
   39  H  3  S   -0.000156   0.074333   0.016127  -0.196106  -0.082135
   40  H  3  S    0.000015  -0.012845   0.001828  -0.022374  -0.050811
   41  H  3  S   -0.000127   0.001982   0.005446  -0.065929  -0.016787
   42  H  4  S    0.000241   0.082942   0.130866   0.090416  -0.053409
   43  H  4  S   -0.000155   0.075360   0.164130   0.113318  -0.079198
   44  H  4  S    0.000016  -0.012690   0.019172   0.013159  -0.048878
   45  H  4  S   -0.000127   0.001905   0.054434   0.037767  -0.016197
   46  H  5  S    0.000241   0.082923  -0.143184   0.068325  -0.054806
   47  H  5  S   -0.000156   0.075134  -0.179535   0.085574  -0.081296
   48  H  5  S    0.000018  -0.012898  -0.020822   0.009820  -0.050248
   49  H  5  S   -0.000132   0.001989  -0.059537   0.028582  -0.016582

                      6          7          8          9         10
                   -0.1291    -0.0754    -0.0750    -0.0750    -0.0371
                     A          A          A          A          A   
    1  C  1  S   -0.034473  -0.004402  -0.000326  -0.000178   0.000016
    2  C  1  S   -0.058090  -0.007010  -0.000524  -0.000286   0.000025
    3  C  1  X   -0.013244   0.048278   0.039775  -0.012922  -0.012986
    4  C  1  Y   -0.009605   0.040481  -0.048330  -0.006314   0.007674
    5  C  1  Z    0.004565  -0.014595  -0.003521  -0.060933  -0.021057
    6  C  1  S    0.183282   0.031318   0.002368   0.001339  -0.000135
    7  C  1  X   -0.024155   0.092437   0.083729  -0.027956  -0.012886
    8  C  1  Y   -0.017596   0.078586  -0.103103  -0.013777   0.007606
    9  C  1  Z    0.008278  -0.027423  -0.007223  -0.129257  -0.020923
   10  C  1  S    0.632133   0.011170   0.000854   0.000444   0.000488
   11  C  1  X   -0.051099   0.100685   0.050103  -0.013152  -0.203047
   12  C  1  Y   -0.036892   0.080030  -0.055324  -0.006080   0.120129
   13  C  1  Z    0.017694  -0.032398  -0.005292  -0.072276  -0.329231
   14  C  1  S    2.335017   0.305192   0.020330   0.009679   0.001607
   15  C  1  X   -0.071963   0.471892   0.069741   0.008596  -1.665276
   16  C  1  Y   -0.052186   0.350811  -0.027865   0.009051   0.984125
   17  C  1  Z    0.025039  -0.163893  -0.014023  -0.064789  -2.700374
   18  C  1 XX    0.012373  -0.002514   0.000658  -0.000341   0.005156
   19  C  1 YY    0.011813   0.003888  -0.005085   0.007325  -0.023809
   20  C  1 ZZ    0.011149   0.009432   0.005189  -0.006550   0.018611
   21  C  1 XY    0.001185  -0.011237   0.001111  -0.007975   0.018746
   22  C  1 XZ   -0.000523   0.006426  -0.006618  -0.009895   0.015888
   23  C  1 YZ   -0.000390   0.003240   0.012028  -0.000770   0.019764
   24  C  1 XXX  -0.002746   0.005368   0.002029  -0.000378  -0.004052
   25  C  1 YYY   0.001125   0.004143  -0.004589   0.001235   0.000533
   26  C  1 ZZZ   0.001774  -0.000108  -0.000741  -0.005259  -0.003783
   27  C  1 XXY  -0.003898   0.003383  -0.001762  -0.001080   0.000612
   28  C  1 XXZ   0.001792  -0.001318  -0.001071  -0.003864  -0.001466
   29  C  1 YYX  -0.003836   0.002313   0.003247  -0.000315  -0.000353
   30  C  1 YYZ  -0.002915  -0.002492   0.001258  -0.002680  -0.001512
   31  C  1 ZZX   0.003953   0.003234   0.003025  -0.001973   0.000818
   32  C  1 ZZY  -0.000120   0.001556  -0.002747  -0.001893   0.001619
   33  C  1 XYZ   0.005837   0.000622   0.000621   0.000574  -0.000768
   34  H  2  S    0.002286  -0.032177  -0.002297  -0.001682   0.000003
   35  H  2  S   -0.031235  -0.003723  -0.000383  -0.000574   0.000058
   36  H  2  S   -0.320142  -0.165090  -0.012233  -0.008663   0.000120
   37  H  2  S   -1.209107   3.220916   0.224394   0.155608   0.002534
   38  H  3  S   -0.004625   0.009301   0.016320   0.012131  -0.006074
   39  H  3  S   -0.032604   0.003899  -0.023366  -0.017141  -0.012281
   40  H  3  S   -0.207074   0.033341   0.246537   0.184133  -0.155361
   41  H  3  S   -0.633952  -1.037555  -1.979929  -1.456585  -0.528246
   42  H  4  S   -0.004496   0.011420   0.003018  -0.018928   0.049682
   43  H  4  S   -0.032392  -0.000312  -0.003172   0.028835   0.099840
   44  H  4  S   -0.206375   0.068056   0.039265  -0.300197   1.270372
   45  H  4  S   -0.630670  -1.325703  -0.357141   2.284070   4.300930
   46  H  5  S   -0.004545   0.011702  -0.017116   0.008425  -0.043661
   47  H  5  S   -0.032599  -0.000083   0.026710  -0.011297  -0.087742
   48  H  5  S   -0.207345   0.070334  -0.272890   0.125502  -1.116767
   49  H  5  S   -0.634726  -1.342830   2.079494  -1.000130  -3.775800

                     11         12         13         14         15
                   -0.0370    -0.0313     0.0072     0.0763     0.0763
                     A          A          A          A          A   
    1  C  1  S   -0.000058  -0.002490   0.039848  -0.000020  -0.000141
    2  C  1  S   -0.000100  -0.003882   0.069825  -0.000035  -0.000220
    3  C  1  X   -0.009639   0.009349   0.014183  -0.101630   0.001010
    4  C  1  Y    0.019631   0.006841   0.010293   0.112727   0.073343
    5  C  1  Z    0.013099  -0.003280  -0.004846  -0.056720   0.144404
    6  C  1  S    0.000236   0.021564  -0.193425  -0.000103   0.000979
    7  C  1  X   -0.009449   0.002262   0.019791  -0.093821   0.000895
    8  C  1  Y    0.019294   0.001705   0.014435   0.104061   0.067616
    9  C  1  Z    0.012883  -0.000790  -0.006765  -0.052405   0.133305
   10  C  1  S    0.001288  -0.086544  -0.934811   0.002248  -0.004004
   11  C  1  X   -0.152695   0.272875   0.105310  -0.895594   0.009230
   12  C  1  Y    0.310248   0.198792   0.076360   0.993617   0.646875
   13  C  1  Z    0.207155  -0.095982  -0.035946  -0.499870   1.272862
   14  C  1  S   -0.000294  -0.361181  12.558902   0.010174  -0.065956
   15  C  1  X   -1.260623   2.595484  -0.139311   1.302583  -0.013137
   16  C  1  Y    2.557226   1.888015  -0.100525  -1.444331  -0.938169
   17  C  1  Z    1.709904  -0.912239   0.047225   0.728209  -1.850531
   18  C  1 XX    0.004438   0.015006  -0.006183   0.005887   0.000370
   19  C  1 YY   -0.006841   0.001424  -0.006301  -0.012128   0.002087
   20  C  1 ZZ    0.002423  -0.010539  -0.006239   0.006207  -0.002084
   21  C  1 XY   -0.007292   0.024538   0.000022   0.003753  -0.008370
   22  C  1 XZ   -0.030759  -0.011763  -0.000087  -0.001847  -0.016708
   23  C  1 YZ    0.023793  -0.008657  -0.000040   0.013793   0.001621
   24  C  1 XXX  -0.003006   0.002982   0.004655  -0.019357   0.000184
   25  C  1 YYY   0.004434   0.002802  -0.002087   0.024642   0.013044
   26  C  1 ZZZ   0.001967  -0.003224  -0.003150  -0.010538   0.028803
   27  C  1 XXY   0.001330  -0.001515   0.006718   0.009026   0.008203
   28  C  1 XXZ   0.000782   0.000780  -0.003069  -0.004516   0.016117
   29  C  1 YYX   0.001162   0.000926   0.006665  -0.010009  -0.000159
   30  C  1 YYZ   0.001593   0.001589   0.005286  -0.007762   0.012325
   31  C  1 ZZX  -0.000821   0.000658  -0.007112  -0.011255   0.000496
   32  C  1 ZZY   0.000264   0.001848   0.000201   0.010361   0.008438
   33  C  1 XYZ   0.000728  -0.000285  -0.010333  -0.000945  -0.000224
   34  H  2  S    0.000092   0.059976   0.001204   0.000014   0.000785
   35  H  2  S   -0.000018   0.086848   0.164800   0.000365   0.003539
   36  H  2  S    0.002074   1.603030  -0.526340   0.004045   0.051890
   37  H  2  S    0.003117   4.675553  -3.071369  -0.014997  -0.081144
   38  H  3  S    0.053795  -0.017052  -0.001190   0.025444   0.044109
   39  H  3  S    0.107098  -0.020867   0.147637   0.125950   0.217835
   40  H  3  S    1.376896  -0.435649  -0.881071   1.079880   1.872260
   41  H  3  S    4.665122  -1.501122  -2.383462  -2.433538  -4.181804
   42  H  4  S   -0.021736  -0.017016  -0.001395   0.025416  -0.044249
   43  H  4  S   -0.043537  -0.020738   0.147335   0.127005  -0.221210
   44  H  4  S   -0.555317  -0.434498  -0.885042   1.079049  -1.881095
   45  H  4  S   -1.880220  -1.494488  -2.375941  -2.441324   4.265903
   46  H  5  S   -0.032264  -0.016975  -0.001286  -0.050991  -0.000161
   47  H  5  S   -0.064448  -0.020803   0.147676  -0.254045  -0.001130
   48  H  5  S   -0.824916  -0.432962  -0.881600  -2.170041  -0.008113
   49  H  5  S   -2.787134  -1.488349  -2.384148   4.883431   0.042120

                     16         17         18         19         20
                    0.0850     0.1616     0.2901     0.2905     0.2991
                     A          A          A          A          A   
    1  C  1  S    0.002766  -0.044234   0.000014   0.000044   0.001205
    2  C  1  S    0.003657  -0.087367   0.000024   0.000064   0.002239
    3  C  1  X   -0.126019   0.014097  -0.008853  -0.006110   0.005546
    4  C  1  Y   -0.090175   0.010206   0.005689   0.012977   0.003825
    5  C  1  Z    0.046764  -0.004862  -0.013458   0.009702  -0.001890
    6  C  1  S   -0.041499   0.040741  -0.000049  -0.000533  -0.005128
    7  C  1  X   -0.102443  -0.002992  -0.047903  -0.032901   0.047555
    8  C  1  Y   -0.073230  -0.002214   0.031004   0.070305   0.033696
    9  C  1  Z    0.038118   0.001064  -0.072700   0.052112  -0.016286
   10  C  1  S    0.353569   3.969458  -0.000308   0.003721   0.042240
   11  C  1  X   -1.185894   0.176869   0.696058   0.473687  -1.036409
   12  C  1  Y   -0.849206   0.128424  -0.456041  -1.018736  -0.745226
   13  C  1  Z    0.439604  -0.061014   1.059326  -0.749874   0.358375
   14  C  1  S    3.035685  16.379877   0.000027   0.018247  -0.162099
   15  C  1  X    1.569437  -0.145636  -1.041416  -0.707472   1.531368
   16  C  1  Y    1.123093  -0.106984   0.682887   1.521695   1.101520
   17  C  1  Z   -0.582905   0.049589  -1.585768   1.120108  -0.530006
   18  C  1 XX   -0.004921  -0.043164  -0.004303  -0.003526  -0.010826
   19  C  1 YY   -0.006170  -0.044561   0.027475   0.004245   0.002581
   20  C  1 ZZ   -0.007378  -0.046039  -0.023166  -0.000955   0.014892
   21  C  1 XY    0.002213   0.002761  -0.021685   0.008529  -0.024514
   22  C  1 XZ   -0.001431  -0.001309  -0.015364   0.035612   0.011746
   23  C  1 YZ   -0.000718  -0.000976  -0.023083  -0.027161   0.008871
   24  C  1 XXX  -0.028957   0.002752   0.001783   0.001388  -0.009136
   25  C  1 YYY  -0.020238   0.005233  -0.007087  -0.004836  -0.005488
   26  C  1 ZZZ   0.008832  -0.000158   0.004530  -0.004835   0.000639
   27  C  1 XXY  -0.011480  -0.002253   0.001750  -0.003862  -0.006357
   28  C  1 XXZ   0.005941   0.001016   0.004811  -0.006885   0.003100
   29  C  1 YYX  -0.013390  -0.001456   0.002952   0.003016  -0.004909
   30  C  1 YYZ   0.006489  -0.003812   0.005807   0.001555   0.003480
   31  C  1 ZZX  -0.013439   0.006544   0.005624   0.002587  -0.004322
   32  C  1 ZZY  -0.008487   0.001712   0.000521  -0.005811  -0.001821
   33  C  1 XYZ  -0.000144   0.005999   0.000814   0.001484   0.000349
   34  H  2  S   -0.033165  -0.043648  -0.000541  -0.000277  -0.090327
   35  H  2  S   -0.193578  -0.040840  -0.008949  -0.004852  -1.578944
   36  H  2  S   -2.895890  -3.153220   0.011957   0.002747   1.941718
   37  H  2  S    4.537030  -2.827515   0.008115   0.002836   1.547445
   38  H  3  S    0.003066  -0.050252   0.004089  -0.065180   0.022938
   39  H  3  S    0.062013  -0.072102   0.087361  -1.398958   0.481796
   40  H  3  S    0.392962  -3.586697  -0.113840   1.812012  -0.618255
   41  H  3  S   -2.259126  -2.180415  -0.092320   1.485893  -0.486395
   42  H  4  S    0.001719  -0.050278  -0.058387   0.029382   0.022966
   43  H  4  S    0.054396  -0.073517  -1.252361   0.629968   0.482239
   44  H  4  S    0.322893  -3.583639   1.630391  -0.821230  -0.618581
   45  H  4  S   -2.107271  -2.178487   1.328555  -0.671663  -0.487159
   46  H  5  S    0.002158  -0.050199   0.054865   0.036263   0.022367
   47  H  5  S    0.057307  -0.073247   1.174142   0.776321   0.467663
   48  H  5  S    0.349775  -3.580797  -1.528275  -1.010820  -0.600797
   49  H  5  S   -2.166487  -2.182659  -1.244425  -0.827022  -0.470549

                     21         22         23         24         25
                    0.5720     0.5722     0.5771     0.5930     0.6692
                     A          A          A          A          A   
    1  C  1  S    0.000041  -0.000337   0.008256   0.021006   0.104756
    2  C  1  S   -0.000268  -0.000416   0.024664   0.022808   0.131164
    3  C  1  X   -0.125372  -0.096027   0.025180   0.196053  -0.045481
    4  C  1  Y    0.207033   0.014669   0.024641   0.140584  -0.033164
    5  C  1  Z    0.065132  -0.231202  -0.009275  -0.072574   0.015784
    6  C  1  S   -0.013617   0.006547   0.386861  -0.509157  -1.950550
    7  C  1  X   -0.546625  -0.418479   0.121505   0.849680  -0.197882
    8  C  1  Y    0.902177   0.063854   0.116207   0.609372  -0.144010
    9  C  1  Z    0.284012  -1.007578  -0.044401  -0.314523   0.068726
   10  C  1  S    0.073143  -0.022167  -2.493523   1.962088   6.373337
   11  C  1  X    1.099351   0.840556  -0.260670  -1.597143   0.370537
   12  C  1  Y   -1.811919  -0.128984  -0.244541  -1.144812   0.270128
   13  C  1  Z   -0.570681   2.024904   0.095032   0.592135  -0.128389
   14  C  1  S   -0.208203  -0.028640   9.895534  -0.393440   4.393689
   15  C  1  X   -0.613426  -0.469360   0.165173   0.897950  -0.192553
   16  C  1  Y    1.010618   0.072027   0.150150   0.644030  -0.140727
   17  C  1  Z    0.318075  -1.129553  -0.060051  -0.332639   0.066640
   18  C  1 XX    0.009654   0.009073   0.052360  -0.085721  -0.359157
   19  C  1 YY   -0.022189  -0.019554   0.054615  -0.093707  -0.356477
   20  C  1 ZZ    0.006317   0.014176   0.058141  -0.100148  -0.353678
   21  C  1 XY   -0.004499   0.020758  -0.005707   0.014217  -0.005229
   22  C  1 XZ   -0.027346   0.028797   0.002255  -0.006053   0.002491
   23  C  1 YZ    0.028005   0.016674   0.002674  -0.005160   0.001806
   24  C  1 XXX  -0.006420  -0.004916   0.006239   0.013654  -0.004895
   25  C  1 YYY   0.008218  -0.000257  -0.004349   0.011181  -0.001629
   26  C  1 ZZZ   0.001907  -0.007629  -0.004230  -0.004684   0.003146
   27  C  1 XXY   0.002635  -0.000176   0.011368   0.003067  -0.002918
   28  C  1 XXZ   0.001436  -0.003694  -0.005149  -0.001658   0.001292
   29  C  1 YYX   0.000367  -0.001459   0.010523   0.004988  -0.003964
   30  C  1 YYZ   0.000907  -0.003831   0.008450  -0.003643  -0.002528
   31  C  1 ZZX  -0.001363   0.000511  -0.012236   0.008358   0.001936
   32  C  1 ZZY   0.002243   0.001650  -0.000213   0.004757  -0.001417
   33  C  1 XYZ   0.000773  -0.001333  -0.017038   0.002484   0.004452
   34  H  2  S   -0.000846  -0.001168   0.079820   0.063400   0.036600
   35  H  2  S   -0.025670  -0.009972   1.485321   0.425849   0.043951
   36  H  2  S    0.013001   0.041640  -2.133620  -2.613054  -1.789603
   37  H  2  S    0.053756  -0.031370  -1.005886   2.724706  -0.931454
   38  H  3  S    0.067806  -0.029294   0.063224  -0.019751   0.055531
   39  H  3  S    0.528049  -0.236869   1.405996  -0.391831   0.246711
   40  H  3  S   -2.184776   0.942579  -1.712637   0.488345  -2.543363
   41  H  3  S    2.468531  -1.019486  -1.579574  -0.767562  -0.155059
   42  H  4  S   -0.010805   0.074685   0.061903  -0.017710   0.055610
   43  H  4  S   -0.108311   0.603471   1.393848  -0.373721   0.246363
   44  H  4  S    0.337568  -2.395431  -1.670080   0.419011  -2.545104
   45  H  4  S   -0.301484   2.649148  -1.623940  -0.691949  -0.152037
   46  H  5  S   -0.061564  -0.045283   0.060566  -0.018501   0.055510
   47  H  5  S   -0.518112  -0.365269   1.382116  -0.380545   0.245371
   48  H  5  S    1.966826   1.456315  -1.625075   0.446801  -2.541609
   49  H  5  S   -2.093502  -1.586185  -1.672459  -0.723077  -0.155145

                     26         27         28         29         30
                    1.1679     1.1686     1.5316     1.5348     1.5352
                     A          A          A          A          A   
    1  C  1  S    0.000067  -0.000027  -0.000658  -0.000026   0.000010
    2  C  1  S    0.000107  -0.000034  -0.004038  -0.000116  -0.000007
    3  C  1  X   -0.003236  -0.004035   0.023263   0.029414  -0.014479
    4  C  1  Y    0.006577   0.002180   0.016931  -0.021660   0.036767
    5  C  1  Z    0.004034  -0.006788  -0.009400   0.036708   0.033474
    6  C  1  S   -0.000602   0.000224   0.005706   0.000212  -0.000014
    7  C  1  X   -0.004113  -0.005169   0.024079   0.026779  -0.013139
    8  C  1  Y    0.008530   0.002793   0.017553  -0.019708   0.033451
    9  C  1  Z    0.005202  -0.008731  -0.009623   0.033419   0.030442
   10  C  1  S    0.000608  -0.000483   0.017527   0.000402   0.000061
   11  C  1  X    0.007964   0.009981   0.696851   0.523345  -0.251242
   12  C  1  Y   -0.016274  -0.005379   0.508313  -0.379351   0.652105
   13  C  1  Z   -0.009988   0.016817  -0.266940   0.644780   0.587655
   14  C  1  S    0.000602   0.000445   0.147692   0.003632   0.000728
   15  C  1  X   -0.004594  -0.005751  -0.582386  -0.433488   0.207924
   16  C  1  Y    0.009311   0.003103  -0.424894   0.314137  -0.540049
   17  C  1  Z    0.005724  -0.009676   0.222933  -0.533971  -0.486545
   18  C  1 XX   -0.552989  -0.691802  -0.473988   0.210487  -0.132551
   19  C  1 YY    0.771857  -0.097577   0.015262  -0.702456   0.126805
   20  C  1 ZZ   -0.219020   0.789572   0.414485   0.490904   0.005326
   21  C  1 XY    0.333888   0.250797  -0.873302   0.450740   0.301318
   22  C  1 XZ    0.048396  -0.310925   0.394540   0.317997   0.951953
   23  C  1 YZ    0.502780  -0.314714   0.299219   0.687895  -0.526605
   24  C  1 XXX   0.009264   0.011627   0.079425   0.038235  -0.017748
   25  C  1 YYY  -0.008935   0.003607   0.046570  -0.040419   0.058581
   26  C  1 ZZZ  -0.000695   0.004941  -0.010293   0.066836   0.063017
   27  C  1 XXY  -0.000570  -0.001232   0.055629  -0.020057   0.030631
   28  C  1 XXZ   0.000787   0.000613  -0.027935   0.029101   0.023655
   29  C  1 YYX  -0.009215  -0.002032   0.044136   0.031907  -0.025919
   30  C  1 YYZ  -0.004642   0.000929  -0.027723   0.027870   0.025176
   31  C  1 ZZX   0.000746  -0.008706   0.032605   0.036311  -0.006951
   32  C  1 ZZY   0.004879  -0.006260   0.015759  -0.011881   0.039387
   33  C  1 XYZ  -0.003751   0.003879  -0.007235  -0.007071  -0.006336
   34  H  2  S   -0.000073  -0.000021  -0.374758  -0.006427  -0.005859
   35  H  2  S    0.000151   0.000306   1.917759   0.032797   0.029640
   36  H  2  S   -0.000566  -0.000086  -1.071641  -0.018424  -0.016396
   37  H  2  S    0.000254  -0.000130  -0.559070  -0.009738  -0.008397
   38  H  3  S    0.000008  -0.000009   0.107119   0.020672  -0.300929
   39  H  3  S   -0.026602   0.003923  -0.622542  -0.120412   1.753421
   40  H  3  S    0.008452  -0.001220   0.315136   0.064294  -0.943412
   41  H  3  S    0.010009  -0.001562   0.168345   0.035183  -0.517694
   42  H  4  S   -0.000009   0.000059   0.095911   0.254181   0.169335
   43  H  4  S    0.009883  -0.025021  -0.556652  -1.481901  -0.986514
   44  H  4  S   -0.003309   0.008405   0.279787   0.797041   0.530761
   45  H  4  S   -0.003987   0.009181   0.148742   0.436804   0.291006
   46  H  5  S   -0.000040  -0.000084   0.105477  -0.270029   0.136787
   47  H  5  S    0.016902   0.021311  -0.611936   1.572646  -0.795917
   48  H  5  S   -0.005704  -0.007164   0.309644  -0.847001   0.428266
   49  H  5  S   -0.006507  -0.007802   0.164923  -0.464146   0.234698

                     31         32         33         34         35
                    2.1739     2.2893     2.3069     2.3072     2.6588
                     A          A          A          A          A   
    1  C  1  S   -0.039341  -0.008390   0.000143  -0.000101  -0.000001
    2  C  1  S   -0.123105  -0.026043   0.000452  -0.000334  -0.000005
    3  C  1  X   -0.057812   0.252861  -0.210982   0.048400   0.024319
    4  C  1  Y   -0.041463   0.189562   0.198437  -0.194030  -0.028529
    5  C  1  Z    0.020064  -0.089081  -0.177320  -0.274463   0.011062
[...]
   43  H  4  S    1.454631   0.745503  -0.828911  -0.909529   0.004647
   44  H  4  S   -1.488397  -0.751340   0.825370   0.905345  -0.011534
   45  H  4  S   -0.844733  -0.024211  -0.277275  -0.312196   0.016661
   46  H  5  S   -0.506882  -0.427214  -0.820462   0.168902  -0.000162
   47  H  5  S    1.456993   0.758581   1.194323  -0.244868  -0.010704
   48  H  5  S   -1.491044  -0.764405  -1.189048   0.243768   0.026762
   49  H  5  S   -0.843568  -0.019780   0.410733  -0.086464  -0.038688

                     36         37         38         39         40
                    2.6590     2.6750     2.7615     2.7618     2.7691
                     A          A          A          A          A   
    1  C  1  S   -0.000000   0.000000  -0.000374   0.000045  -0.011576
    2  C  1  S   -0.000003   0.000001  -0.001423   0.000161  -0.043979
    3  C  1  X   -0.001341   0.000105   0.181258  -0.476779  -0.639760
    4  C  1  Y   -0.015502   0.000221  -0.556183   0.401224  -0.449485
    5  C  1  Z   -0.036176   0.000759  -0.577496  -0.536135   0.232480
    6  C  1  S    0.000001  -0.000002   0.003683  -0.000415   0.115021
    7  C  1  X    0.000003  -0.000066  -0.039486   0.102427   0.101081
    8  C  1  Y   -0.000032  -0.000012   0.118714  -0.085692   0.069953
    9  C  1  Z   -0.000260  -0.000211   0.123938   0.114661  -0.036869
   10  C  1  S    0.000033  -0.000005   0.009701  -0.001031   0.296211
   11  C  1  X   -0.001299   0.000192   0.201483  -0.529833  -0.704557
   12  C  1  Y   -0.014767   0.000185  -0.618003   0.445792  -0.494892
   13  C  1  Z   -0.034278   0.000932  -0.641698  -0.595664   0.255993
   14  C  1  S    0.000033   0.000002   0.000333  -0.000213  -0.003496
   15  C  1  X    0.000797  -0.000073  -0.107811   0.283707   0.381432
   16  C  1  Y    0.008833  -0.000115   0.331013  -0.238745   0.268046
   17  C  1  Z    0.020558  -0.000448   0.343557   0.318947  -0.138527
   18  C  1 XX    0.000383   0.000053  -0.003991   0.002668  -0.098560
   19  C  1 YY    0.000003  -0.000158   0.002475   0.017316  -0.109787
   20  C  1 ZZ   -0.000422   0.000109  -0.009277  -0.018761  -0.119527
   21  C  1 XY    0.007359   0.000102  -0.006205  -0.014704   0.020245
   22  C  1 XZ    0.014454   0.000065  -0.023614  -0.002987  -0.009203
   23  C  1 YZ    0.001609   0.000153   0.017546  -0.017105  -0.007440
   24  C  1 XXX   0.022585   0.007776  -0.301412   0.802826   0.599283
   25  C  1 YYY  -0.107678  -0.438604   0.760340  -0.058409   0.538243
   26  C  1 ZZZ  -0.423939   0.311730   0.491879   0.623633  -0.585347
   27  C  1 XXY   0.398080  -0.193475   0.088256  -0.330602  -0.256448
   28  C  1 XXZ   0.739833  -0.374797  -0.120374   0.147997   0.132157
   29  C  1 YYX   0.402908   0.411258   0.183997  -0.009476   0.174929
   30  C  1 YYZ  -0.094852  -0.044740   0.473530  -0.043823   0.232964
   31  C  1 ZZX  -0.430490  -0.421857  -0.097023  -0.231339   0.177815
   32  C  1 ZZY  -0.221061   0.781525  -0.132014  -0.295269   0.348052
   33  C  1 XYZ   0.425821   0.354447   0.168714  -0.016541  -0.019331
   34  H  2  S    0.000038  -0.000001  -0.001573   0.000428  -0.083025
   35  H  2  S   -0.000122   0.000001   0.003599  -0.000874   0.183022
   36  H  2  S    0.000073  -0.000001  -0.015422   0.003075  -0.715707
   37  H  2  S   -0.000028   0.000000   0.019022  -0.003852   0.919848
   38  H  3  S   -0.000253   0.000175  -0.098202   0.014772   0.037921
   39  H  3  S    0.009373  -0.000281   0.213010  -0.032185  -0.085919
   40  H  3  S   -0.022762   0.000548  -0.646507   0.097871   0.183752
   41  H  3  S    0.032446  -0.000634   0.857515  -0.130011  -0.312067
   42  H  4  S    0.000132  -0.000368   0.063364   0.078174   0.034677
   43  H  4  S   -0.009928   0.000456  -0.137491  -0.169456  -0.079116
   44  H  4  S    0.024424  -0.000879   0.413006   0.512375   0.163703
   45  H  4  S   -0.035057   0.000920  -0.551527  -0.681037  -0.285607
   46  H  5  S    0.000066   0.000193   0.037055  -0.093385   0.034574
   47  H  5  S    0.000709  -0.000174  -0.080602   0.202461  -0.078739
   48  H  5  S   -0.001794   0.000333   0.241697  -0.612354   0.162440
   49  H  5  S    0.002625  -0.000288  -0.323997   0.814887  -0.283846

                     41         42         43         44         45
                    3.0209     3.5703     3.6231     3.6235     4.2525
                     A          A          A          A          A   
    1  C  1  S   -0.157375  -0.001058  -0.000035  -0.000011   0.054370
    2  C  1  S   -0.609254  -0.003654  -0.000141  -0.000046   0.221942
    3  C  1  X    0.047369  -0.295816  -0.236128   0.034367  -0.016152
    4  C  1  Y    0.035173  -0.216550   0.285328   0.124317  -0.011706
    5  C  1  Z   -0.016144   0.104378  -0.076994   0.355606   0.005553
    6  C  1  S    1.595094   0.028395   0.000561   0.000081  -1.027728
    7  C  1  X   -0.031475  -0.263470  -0.196236   0.028567  -0.002028
    8  C  1  Y   -0.023200  -0.192955   0.237227   0.103251  -0.001439
    9  C  1  Z    0.010822   0.093019  -0.064071   0.295497   0.000688
   10  C  1  S    3.922771  -0.025835   0.000322   0.000315  -0.506510
   11  C  1  X    0.047230  -0.177151  -0.142367   0.020723  -0.009324
   12  C  1  Y    0.035060  -0.129681   0.172023   0.074957  -0.006744
   13  C  1  Z   -0.016118   0.062507  -0.046422   0.214425   0.003206
   14  C  1  S    0.603936  -0.066551  -0.000367   0.000355   1.904614
   15  C  1  X   -0.022080   0.183654   0.149970  -0.021832   0.009587
   16  C  1  Y   -0.016411   0.134458  -0.181239  -0.078992   0.006912
   17  C  1  Z    0.007521  -0.064794   0.048894  -0.225905  -0.003303
   18  C  1 XX   -1.528163  -0.220994   0.106910  -0.010119   0.617484
   19  C  1 YY   -1.525196  -0.002711  -0.294529   0.146510   0.629915
   20  C  1 ZZ   -1.522685   0.186715   0.186563  -0.136625   0.641171
   21  C  1 XY   -0.005175  -0.392299   0.094649  -0.243226  -0.022680
   22  C  1 XZ    0.002625   0.189091  -0.137791  -0.437921   0.010988
   23  C  1 YZ    0.001729   0.137146   0.402044   0.022789   0.008129
   24  C  1 XXX  -0.078381   0.424322  -0.235145   0.049902  -0.142018
   25  C  1 YYY   0.066163   0.129496  -0.556495   0.320850   0.300116
   26  C  1 ZZZ   0.098553   0.357982  -0.053253  -0.466674   0.191627
   27  C  1 XXY  -0.115111   0.761628  -0.098263  -0.310525  -0.410301
   28  C  1 XXZ   0.050644  -0.376253  -0.091495  -0.634070   0.183991
   29  C  1 YYX  -0.141305   0.313395   0.611075   0.168134  -0.403937
   30  C  1 YYZ  -0.167611  -0.518131   0.464441  -0.131890  -0.456883
   31  C  1 ZZX   0.201403   0.290882   0.628716  -0.369669   0.640389
   32  C  1 ZZY  -0.007214  -0.076019  -0.272322  -0.606631   0.040782
   33  C  1 XYZ   0.258187   0.002887   0.110311   0.219715   0.784955
   34  H  2  S    0.014580   1.243220   0.002315  -0.000399  -0.717750
   35  H  2  S   -0.054121  -0.833407  -0.001546   0.000266   0.568104
   36  H  2  S   -0.793197   0.417262   0.000728  -0.000255  -0.417364
   37  H  2  S   -0.023914   0.163008   0.000334  -0.000047  -0.261030
   38  H  3  S   -0.023136  -0.371763  -0.734589  -0.906839  -0.803456
   39  H  3  S   -0.001723   0.252122   0.497146   0.613723   0.624179
   40  H  3  S   -0.876691  -0.108472  -0.244584  -0.302035  -0.444618
   41  H  3  S    0.058701  -0.043398  -0.090541  -0.111829  -0.271716
   42  H  4  S   -0.023622  -0.371843  -0.418514   1.089157  -0.803568
   43  H  4  S   -0.001130   0.252170   0.283256  -0.737115   0.624258
   44  H  4  S   -0.877771  -0.108521  -0.139326   0.362499  -0.444625
   45  H  4  S    0.059885  -0.043368  -0.051621   0.134282  -0.271767
   46  H  5  S   -0.023526  -0.374696   1.151754  -0.182423  -0.802799
   47  H  5  S   -0.001347   0.254083  -0.779392   0.123463   0.623729
   48  H  5  S   -0.877487  -0.109443   0.383360  -0.060815  -0.444354
   49  H  5  S    0.059630  -0.043739   0.142063  -0.022559  -0.271698

                     46         47         48         49
                    9.1247     9.1495     9.1496    27.3080
                     A          A          A          A   
    1  C  1  S   -0.001985  -0.000023  -0.000011  -2.115112
    2  C  1  S    0.000220   0.000011   0.000001   2.569719
    3  C  1  X   -2.945741   1.335703  -1.996252   0.001960
    4  C  1  Y   -2.159576  -2.857052   1.270524   0.001462
    5  C  1  Z    1.055279  -2.118307  -2.972349  -0.000672
    6  C  1  S    0.003151   0.000028   0.000019  -1.094903
    7  C  1  X   12.211252  -5.541253   8.281588  -0.008232
    8  C  1  Y    8.952297  11.852693  -5.270851  -0.006127
    9  C  1  Z   -4.374538   8.787950  12.330996   0.002826
   10  C  1  S    0.007130   0.000021   0.000069  -1.128708
   11  C  1  X   -1.681852   0.762603  -1.139727   0.001172
   12  C  1  Y   -1.232993  -1.631186   0.725388   0.000875
   13  C  1  Z    0.602510  -1.209417  -1.697021  -0.000400
   14  C  1  S    0.003771   0.000017   0.000067  -0.237005
   15  C  1  X    0.648142  -0.293938   0.439293  -0.000472
   16  C  1  Y    0.475162   0.628722  -0.279593  -0.000353
   17  C  1  Z   -0.232194   0.466158   0.654099   0.000164
   18  C  1 XX   -0.048068  -0.013978   0.018304   0.658034
   19  C  1 YY   -0.000473   0.019260  -0.066535   0.658006
   20  C  1 ZZ    0.040240  -0.005321   0.048164   0.657981
   21  C  1 XY   -0.085308   0.024436   0.048732   0.000051
   22  C  1 XZ    0.040702   0.087745   0.040893  -0.000026
   23  C  1 YZ    0.029653  -0.060168   0.059567  -0.000017
   24  C  1 XXX  -6.274164   2.863071  -4.280136  -0.002735
   25  C  1 YYY  -4.607745  -6.104284   2.686130   0.016123
   26  C  1 ZZZ   2.273339  -4.512011  -6.344149   0.006305
   27  C  1 XXY  -2.026902  -2.718134   1.222523  -0.017973
   28  C  1 XXZ   0.990062  -1.999570  -2.825315   0.008100
   29  C  1 YYX  -2.800532   1.251162  -1.892675  -0.016406
   30  C  1 YYZ   0.981549  -2.037319  -2.821631  -0.019795
   31  C  1 ZZX  -2.799338   1.270126  -1.873885   0.029492
   32  C  1 ZZY  -2.067680  -2.701453   1.225668   0.003345
   33  C  1 XYZ   0.001988  -0.011811  -0.003114   0.034465
   34  H  2  S   -0.052552  -0.000044  -0.000261  -0.054761
   35  H  2  S    0.573337   0.000505   0.002838   0.008314
   36  H  2  S   -1.299490  -0.001141  -0.006437   0.259069
   37  H  2  S    1.538842   0.001340   0.007598  -0.003536
   38  H  3  S    0.017897  -0.050053  -0.002818  -0.054753
   39  H  3  S   -0.191541   0.538567   0.030329   0.008805
   40  H  3  S    0.431674  -1.218574  -0.068642   0.257863
   41  H  3  S   -0.515019   1.446615   0.081451  -0.002023
   42  H  4  S    0.017594   0.022531   0.044895  -0.054752
   43  H  4  S   -0.188312  -0.242448  -0.483133   0.008813
   44  H  4  S    0.424353   0.548560   1.093117   0.257842
   45  H  4  S   -0.506322  -0.651232  -1.297721  -0.002005
   46  H  5  S    0.018015   0.027561  -0.041807  -0.054752
   47  H  5  S   -0.192891  -0.296620   0.449985   0.008813
   48  H  5  S    0.434719   0.671127  -1.018150   0.257844
   49  H  5  S   -0.518626  -0.796731   1.208644  -0.002002
 ...... END OF UHF CALCULATION ......
 STEP CPU TIME =     1.00 TOTAL CPU TIME =          1.0 (      0.0 MIN)
 TOTAL WALL CLOCK TIME=          1.0 SECONDS, CPU UTILIZATION IS    99.02%

     ----------------------------------------------------------------
     PROPERTY VALUES FOR THE UHF   SELF-CONSISTENT FIELD WAVEFUNCTION
     ----------------------------------------------------------------

          -----------------
          ENERGY COMPONENTS
          -----------------

         WAVEFUNCTION NORMALIZATION =       1.0000000000

                ONE ELECTRON ENERGY =     -75.8838820311
                TWO ELECTRON ENERGY =      62.4484938103
           NUCLEAR REPULSION ENERGY =      13.4353882208
                                      ------------------
                       TOTAL ENERGY =       0.0000000000

 ELECTRON-ELECTRON POTENTIAL ENERGY =      62.4484938103
  NUCLEUS-ELECTRON POTENTIAL ENERGY =    -115.8133041395
   NUCLEUS-NUCLEUS POTENTIAL ENERGY =      13.4353882208
                                      ------------------
             TOTAL POTENTIAL ENERGY =     -39.9294221084
               TOTAL KINETIC ENERGY =      39.9294221084
                 VIRIAL RATIO (V/T) =       1.0000000000

          ---------------------------------------
          MULLIKEN AND LOWDIN POPULATION ANALYSES
          ---------------------------------------

     ATOMIC MULLIKEN POPULATION IN EACH MOLECULAR ORBITAL
        ALPHA ORBITALS

                      1          2          3          4          5

                  1.000000   1.000000   1.000000   1.000000   1.000000

    1             1.000087   0.754370   0.574361   0.643854   0.646157
    2            -0.000022   0.145968   0.284566   0.000013   0.000009
    3            -0.000021   0.033606   0.048701   0.193547   0.043425
    4            -0.000022   0.032935   0.045749   0.001626   0.235287
    5            -0.000022   0.033122   0.046622   0.160960   0.075122

     ATOMIC MULLIKEN POPULATION IN EACH MOLECULAR ORBITAL
         BETA ORBITALS

                      1          2          3          4

                  1.000000   1.000000   1.000000   1.000000

    1             1.000068   0.801415   0.650455   0.652771
    2            -0.000021   0.008637   0.000004   0.000009
    3            -0.000016   0.062743   0.001545   0.228566
    4            -0.000016   0.063722   0.158439   0.075557
    5            -0.000016   0.063482   0.189557   0.043098

     ATOMIC SPIN POPULATION (ALPHA MINUS BETA)
       ATOM         MULL.POP.                    LOW.POP.
    1 C             0.514122                     0.609940
    2 H             0.421903                     0.331419
    3 H             0.026419                     0.022623
    4 H             0.017873                     0.016844
    5 H             0.019682                     0.019173


          ********* ALL ELECTRONS ********

               ----- POPULATIONS IN EACH AO -----
                             MULLIKEN      LOWDIN
              1  C  1  S      1.10359     1.04845
              2  C  1  S      0.88986     0.91238
              3  C  1  X      0.16159     0.14779
              4  C  1  Y      0.20110     0.18404
              5  C  1  Z      0.23483     0.21498
              6  C  1  S      0.79790     0.45028
              7  C  1  X      0.40643     0.23345
              8  C  1  Y      0.50115     0.28781
              9  C  1  Z      0.58204     0.33358
             10  C  1  S      0.68741     0.25614
             11  C  1  X      0.23797     0.19492
             12  C  1  Y      0.31565     0.24648
             13  C  1  Z      0.38211     0.28989
             14  C  1  S      0.00589     0.03465
             15  C  1  X     -0.02129     0.01941
             16  C  1  Y     -0.02721     0.02493
             17  C  1  Z     -0.03228     0.02958
             18  C  1 XX      0.03196     0.16266
             19  C  1 YY      0.03560     0.16775
             20  C  1 ZZ      0.03793     0.17100
             21  C  1 XY      0.01681     0.02185
             22  C  1 XZ      0.01606     0.02140
             23  C  1 YZ      0.01305     0.01672
             24  C  1 XXX     0.02234     0.14145
             25  C  1 YYY     0.02567     0.17981
             26  C  1 ZZZ     0.02633     0.20649
             27  C  1 XXY     0.01394     0.09392
             28  C  1 XXZ     0.01532     0.10999
             29  C  1 YYX     0.00955     0.07841
             30  C  1 YYZ     0.01216     0.10034
             31  C  1 ZZX     0.00911     0.07833
             32  C  1 ZZY     0.00844     0.08774
             33  C  1 XYZ     0.00252     0.00380
             34  H  2  S      0.19208     0.16372
             35  H  2  S      0.26650     0.21773
             36  H  2  S     -0.02873     0.08299
             37  H  2  S      0.00931     0.01715
             38  H  3  S      0.24388     0.20630
             39  H  3  S      0.35364     0.31188
             40  H  3  S     -0.00418     0.11444
             41  H  3  S      0.01876     0.01959
             42  H  4  S      0.24437     0.21053
             43  H  4  S      0.35417     0.31387
             44  H  4  S     -0.00408     0.11453
             45  H  4  S      0.01882     0.01959
             46  H  5  S      0.24401     0.21000
             47  H  5  S      0.35349     0.31331
             48  H  5  S     -0.00438     0.11434
             49  H  5  S      0.01880     0.01958

          ----- MULLIKEN ATOMIC OVERLAP POPULATIONS -----
          (OFF-DIAGONAL ELEMENTS NEED TO BE MULTIPLIED BY 2)

             1           2           3           4           5

    1    5.5380658
    2    0.1784435   0.2954833
    3    0.3351352  -0.0112907   0.3398144
    4    0.3363043  -0.0118410  -0.0257565   0.3401730
    5    0.3355895  -0.0116321  -0.0258070  -0.0256017   0.3393767

          TOTAL MULLIKEN AND LOWDIN ATOMIC POPULATIONS
       ATOM         MULL.POP.    CHARGE          LOW.POP.     CHARGE
    1 C             6.723538   -0.723538         6.550416   -0.550416
    2 H             0.439163    0.560837         0.481594    0.518406
    3 H             0.612095    0.387905         0.652218    0.347782
    4 H             0.613278    0.386722         0.658531    0.341469
    5 H             0.611925    0.388075         0.657241    0.342759

          -------------------------------
          BOND ORDER AND VALENCE ANALYSIS     BOND ORDER THRESHOLD=0.050
          -------------------------------

                   BOND                       BOND                       BOND
  ATOM PAIR DIST  ORDER      ATOM PAIR DIST  ORDER      ATOM PAIR DIST  ORDER
    1   2  1.090  0.482        1   3  1.090  0.829        1   4  1.090  0.831
    1   5  1.090  0.829

                       TOTAL       BONDED        FREE
      ATOM            VALENCE     VALENCE     VALENCE
    1 C                 3.279       2.971       0.308
    2 H                 0.653       0.471       0.182
    3 H                 0.810       0.809       0.001
    4 H                 0.811       0.810       0.000
    5 H                 0.810       0.809       0.000

          -----------------------------------------
          ATOMIC SPIN DENSITY AT THE NUCLEUS (A.U.)
          -----------------------------------------
                            SPIN DENS    ALPHA DENS     BETA DENS
    1  C            6.0    -0.0959641      59.79312      59.88908
    2  H            1.0     0.2633243       0.28621       0.02288
    3  H            1.0     0.0205868       0.20569       0.18511
    4  H            1.0     0.0164214       0.20400       0.18758
    5  H            1.0     0.0174372       0.20421       0.18678

          ---------------------
          ELECTROSTATIC MOMENTS
          ---------------------

 POINT   1           X           Y           Z (BOHR)    CHARGE
                 0.000001    0.000001    0.000001        1.00 (A.U.)
         DX          DY          DZ         /D/  (DEBYE)
    -0.829424   -0.605027    0.285273    1.065544
 ...... END OF PROPERTY EVALUATION ......
 STEP CPU TIME =     0.01 TOTAL CPU TIME =          1.0 (      0.0 MIN)
 TOTAL WALL CLOCK TIME=          1.0 SECONDS, CPU UTILIZATION IS   100.00%
               580000  WORDS OF DYNAMIC MEMORY USED
 EXECUTION OF GAMESS TERMINATED NORMALLY Sat Jan  5 13:36:01 2019
 DDI: 263640 bytes (0.3 MB / 0 MWords) used by master data server.

 ----------------------------------------
 CPU timing information for all processes
 ========================================
 0: 1.12 + 0.12 = 1.24
 ----------------------------------------
 ddikick.x: exited gracefully.
----- accounting info -----
Files used on the master node multivac2 were:
-rw-rw-r-- 1 igorchem igorchem     649 Jan  5 13:36 /home/igorchem/programs/src/metano_cat.F05
-rw-rw-r-- 1 igorchem igorchem 1930480 Jan  5 13:36 /home/igorchem/programs/src/metano_cat.F10
Sat Jan  5 13:36:04 -03 2019
0.0u 0.0s 0:04.06 0.0% 0+0k 0+24io 0pf+0w
