 *******************************************************************************
 ** Site#: 29116        For non-commercial use only    Version 18.025L 64BITS **
 *******************************************************************************
 ** Cite this program as: MOPAC2016, Version: 18.025L, James J. P. Stewart,   **
 ** Stewart Computational Chemistry, web: HTTP://OpenMOPAC.net. Days left:  15**
 *******************************************************************************
 **                                                                           **
 **                                MOPAC2016                                  **
 **                                                                           **
 *******************************************************************************

                              PM7 CALCULATION RESULTS


 *******************************************************************************
 *  CALCULATION DONE:                                Thu Jan 10 12:46:03 2019  *
 *  PM7        - The PM7 Hamiltonian to be used
 *  DOUBLET    - SPIN STATE DEFINED AS A DOUBLET
 *
 *
 *
 *                 CHARGE ON SYSTEM =    +1
 *
 *
 *
 *  1SCF       - DO 1 SCF AND THEN STOP 
 *  T=         - A TIME OF 172800.0 SECONDS REQUESTED
 *  DUMP=N     - RESTART FILE WRITTEN EVERY  7200.000 SECONDS
 *  AUX        - OUTPUT AUXILIARY INFORMATION
 *  LARGE      - EXPANDED OUTPUT TO BE PRINTED
 *  GRAPH      - GENERATE FILE FOR GRAPHICS
 *  ALLVEC     - PRINT ALL EIGENVECTORS
 *******************************************************************************
PM7 1SCF CHARGE=1 Doublet allvecs large AUX GRAPHF


   ATOM   CHEMICAL          X               Y               Z
  NUMBER   SYMBOL      (ANGSTROMS)     (ANGSTROMS)     (ANGSTROMS)
 
     1       C         -0.73900000  *   1.18900000  *  -0.00733400  *
     2       C          0.61400000  *   1.20800000  *   0.35166600  *
     3       C          1.35300000  *   0.01900000  *   0.35866600  *
     4       C          0.73900000  *  -1.18900000  *   0.00666600  *
     5       C         -0.61400000  *  -1.20800000  *  -0.35133400  *
     6       C         -1.35300000  *  -0.01900000  *  -0.35833400  *
     7       H         -1.30900000  *   2.10600000  *  -0.01233400  *
     8       H          1.08800000  *   2.14000000  *   0.62266600  *
     9       H          2.39700000  *   0.03400000  *   0.63466600  *
    10       H          1.30900000  *  -2.10600000  *   0.01266600  *
    11       H         -1.08800000  *  -2.14000000  *  -0.62233400  *
    12       H         -2.39700000  *  -0.03400000  *  -0.63533400  *
 


          CARTESIAN COORDINATES 

    NO.       ATOM           X           Y           Z

     1         C         -0.7390      1.1890     -0.0073
     2         C          0.6140      1.2080      0.3517
     3         C          1.3530      0.0190      0.3587
     4         C          0.7390     -1.1890      0.0067
     5         C         -0.6140     -1.2080     -0.3513
     6         C         -1.3530     -0.0190     -0.3583
     7         H         -1.3090      2.1060     -0.0123
     8         H          1.0880      2.1400      0.6227
     9         H          2.3970      0.0340      0.6347
    10         H          1.3090     -2.1060      0.0127
    11         H         -1.0880     -2.1400     -0.6223
    12         H         -2.3970     -0.0340     -0.6353

 General Reference for PM7:
 "Optimization of Parameters for Semiempirical Methods VI: More Modifications to the 
 NDDO Approximations and Re-optimization of Parameters", J. J. P. Stewart, J. Mol. Mod., 1:32, 19 (2013)
 http://www.springerlink.com/openurl.asp?genre=article&id=doi:10.1007/s00894-012-1667-x

           Empirical Formula: C6 H6  =    12 atoms



      MOLECULAR POINT GROUP   :   D6h 


 DOUBLET STATE CALCULATION


          UHF CALCULATION, NO. OF ALPHA ELECTRONS =   15
                           NO. OF BETA  ELECTRONS =   14

 -------------------------------------------------------------------------------
 PM7 1SCF CHARGE=1 Doublet allvecs large AUX GRAPHF




     1SCF WAS SPECIFIED, SO BFGS WAS NOT USED                 
     SCF FIELD WAS ACHIEVED                                   


                              PM7 CALCULATION
                                                       MOPAC2016 (Version: 18.025L)
                                                       Thu Jan 10 12:46:03 2019
                                                       No. of days remaining =  15




          FINAL HEAT OF FORMATION =        241.52347 KCAL/MOL =    1010.53421 KJ/MOL


          TOTAL ENERGY            =       -808.08385 EV
          ELECTRONIC ENERGY       =      -3237.85948 EV  POINT GROUP:     D6h 
          CORE-CORE REPULSION     =       2429.77563 EV
          COSMO AREA              =        118.62 SQUARE ANGSTROMS
          COSMO VOLUME            =        107.09 CUBIC ANGSTROMS

          IONIZATION POTENTIAL    =         15.751025 EV
          ALPHA SOMO LUMO (EV)    =        -15.751 -6.463
          BETA  SOMO LUMO (EV)    =        -15.928 -9.126
          NO. OF ALPHA ELECTRONS  =         15
          NO. OF BETA  ELECTRONS  =         14
          MOLECULAR WEIGHT        =         78.1134

          MOLECULAR DIMENSIONS (Angstroms)

            Atom       Atom       Distance
            H    11    H     8     4.96018
            H    12    H    10     4.29506
            H     7    H     9     0.00096


          SCF CALCULATIONS        =          1
 
          WALL-CLOCK TIME         =          0.078 SECONDS
          COMPUTATION TIME        =          0.176 SECONDS




   ATOM   CHEMICAL          X               Y               Z
  NUMBER   SYMBOL      (ANGSTROMS)     (ANGSTROMS)     (ANGSTROMS)
 
     1       C         -0.73900000  *   1.18900000  *  -0.00733400  *
     2       C          0.61400000  *   1.20800000  *   0.35166600  *
     3       C          1.35300000  *   0.01900000  *   0.35866600  *
     4       C          0.73900000  *  -1.18900000  *   0.00666600  *
     5       C         -0.61400000  *  -1.20800000  *  -0.35133400  *
     6       C         -1.35300000  *  -0.01900000  *  -0.35833400  *
     7       H         -1.30900000  *   2.10600000  *  -0.01233400  *
     8       H          1.08800000  *   2.14000000  *   0.62266600  *
     9       H          2.39700000  *   0.03400000  *   0.63466600  *
    10       H          1.30900000  *  -2.10600000  *   0.01266600  *
    11       H         -1.08800000  *  -2.14000000  *  -0.62233400  *
    12       H         -2.39700000  *  -0.03400000  *  -0.63533400  *

                             CARTESIAN COORDINATES

   1    C       -0.739000000     1.189000000    -0.007334000
   2    C        0.614000000     1.208000000     0.351666000
   3    C        1.353000000     0.019000000     0.358666000
   4    C        0.739000000    -1.189000000     0.006666000
   5    C       -0.614000000    -1.208000000    -0.351334000
   6    C       -1.353000000    -0.019000000    -0.358334000
   7    H       -1.309000000     2.106000000    -0.012334000
   8    H        1.088000000     2.140000000     0.622666000
   9    H        2.397000000     0.034000000     0.634666000
  10    H        1.309000000    -2.106000000     0.012666000
  11    H       -1.088000000    -2.140000000    -0.622334000
  12    H       -2.397000000    -0.034000000    -0.635334000


           Empirical Formula: C6 H6  =    12 atoms



      MOLECULAR POINT GROUP   :   D6h 


          ALPHA EIGENVECTORS  


   Root No.       1         2         3         4         5         6         7         8

                 1 a1g     2 ????    3 ????    4 ????    5 ????    2 a1g     1 b1u     1 b2u 

               -36.978   -32.489   -31.873   -27.146   -26.946   -23.905   -21.405   -21.251
  
  S   C    1    0.3512   -0.0354    0.4723   -0.0292    0.3638    0.0846   -0.0011    0.2318
  Px  C    1    0.0750    0.1806    0.0226   -0.2815   -0.0786   -0.1701   -0.3237   -0.0877
  Py  C    1   -0.1236    0.1147   -0.0058   -0.1815    0.0770    0.2811   -0.2050    0.1304
  Pz  C    1    0.0003    0.0655    0.0051   -0.1025   -0.0085   -0.0004   -0.1173   -0.0025
  S   C    2    0.3750    0.3996    0.2836   -0.3046   -0.1918    0.0590   -0.0045   -0.2072
  Px  C    2   -0.0533    0.1122   -0.1672    0.1232   -0.3046    0.1217    0.3448   -0.1346
  Py  C    2   -0.1265   -0.0738    0.0900   -0.1903    0.0617    0.3005   -0.2162   -0.2028
  Pz  C    2   -0.0340    0.0178   -0.0298    0.0025   -0.0703    0.0793    0.0567   -0.0673
  S   C    3    0.3800    0.4419   -0.2188    0.3273   -0.1456    0.0541   -0.0037    0.2013
  Px  C    3   -0.1360   -0.0141   -0.0097    0.1343   -0.0614    0.3234   -0.0396    0.2669
  Py  C    3    0.0064    0.1032    0.2106   -0.1501   -0.3284   -0.0190    0.4068    0.0275
  Pz  C    3   -0.0348    0.0125    0.0306    0.0116   -0.0678    0.0820    0.0538    0.0743
  S   C    4    0.3512    0.0353   -0.4723   -0.0291    0.3638    0.0845    0.0011   -0.2318
  Px  C    4   -0.0751    0.1806    0.0227    0.2815    0.0787    0.1700   -0.3237   -0.0880
  Py  C    4    0.1236    0.1146   -0.0057    0.1814   -0.0769   -0.2811   -0.2049    0.1304
  Pz  C    4   -0.0002    0.0655    0.0049    0.1025    0.0087    0.0004   -0.1173   -0.0027
  S   C    5    0.3751   -0.3995   -0.2837   -0.3044   -0.1919    0.0591    0.0044    0.2072
  Px  C    5    0.0533    0.1121   -0.1673   -0.1232    0.3047   -0.1218    0.3449   -0.1344
  Py  C    5    0.1265   -0.0738    0.0901    0.1902   -0.0617   -0.3005   -0.2162   -0.2027
  Pz  C    5    0.0339    0.0178   -0.0298   -0.0024    0.0703   -0.0792    0.0564   -0.0671
  S   C    6    0.3800   -0.4417    0.2189    0.3273   -0.1457    0.0541    0.0037   -0.2014
  Px  C    6    0.1361   -0.0142   -0.0097   -0.1341    0.0614   -0.3233   -0.0395    0.2668
  Py  C    6   -0.0064    0.1031    0.2107    0.1500    0.3285    0.0190    0.4069    0.0274
  Pz  C    6    0.0347    0.0125    0.0306   -0.0117    0.0678   -0.0820    0.0535    0.0745
  S   H    7    0.0948   -0.0148    0.2029   -0.0162    0.2223    0.2325   -0.0024    0.2175
  S   H    8    0.1039    0.1698    0.1236   -0.1949   -0.1368    0.2258   -0.0174   -0.2661
  S   H    9    0.1058    0.1883   -0.0957    0.2155   -0.1071    0.2245   -0.0154    0.2807
  S   H   10    0.0948    0.0148   -0.2029   -0.0161    0.2224    0.2325    0.0023   -0.2176
  S   H   11    0.1039   -0.1698   -0.1237   -0.1948   -0.1369    0.2259    0.0174    0.2660
  S   H   12    0.1057   -0.1882    0.0957    0.2154   -0.1072    0.2244    0.0153   -0.2807


   Root No.       9        10        11        12        13        14        15        16

                 9 ????   10 ????    1 a2u    12 ????   13 ????   14 ????   15 ????   16 ????

               -20.410   -20.131   -19.667   -17.966   -17.844   -16.448   -15.751    -6.463
  
  S   C    1   -0.0066   -0.0182   -0.0001    0.0016   -0.0362    0.0000    0.0002    0.0000
  Px  C    1   -0.0952   -0.2759   -0.0942   -0.2967    0.1778    0.0118    0.1364    0.0120
  Py  C    1   -0.0989    0.4247   -0.0559   -0.1558   -0.3239    0.0070    0.0817    0.0072
  Pz  C    1   -0.0408   -0.0058    0.3569   -0.1027   -0.0040   -0.0449   -0.5188   -0.0455
  S   C    2   -0.0397   -0.0634    0.0000    0.0177    0.0168    0.0001   -0.0001   -0.0001
  Px  C    2    0.1429    0.1878   -0.1049    0.3035   -0.1627   -0.1165    0.0917    0.1219
  Py  C    2    0.3751    0.1472   -0.0628    0.1612    0.3006   -0.0695    0.0549    0.0729
  Pz  C    2    0.0963    0.0724    0.4006    0.1050    0.0047    0.4426   -0.3486   -0.4634
  S   C    3   -0.0608    0.0579    0.0001   -0.0179    0.0128    0.0002    0.0001    0.0002
  Px  C    3    0.4050   -0.1696   -0.1081   -0.2978    0.1604   -0.1337   -0.0676   -0.1288
  Py  C    3   -0.0276   -0.1034   -0.0648   -0.1634   -0.3026   -0.0804   -0.0406   -0.0774
  Pz  C    3    0.1018   -0.0610    0.4116   -0.1041   -0.0054    0.5092    0.2575    0.4905
  S   C    4    0.0066    0.0183   -0.0001    0.0015   -0.0363   -0.0001   -0.0002   -0.0000
  Px  C    4   -0.0954   -0.2759   -0.0937    0.2967   -0.1778   -0.0117   -0.1364    0.0119
  Py  C    4   -0.0987    0.4247   -0.0562    0.1560    0.3239   -0.0069   -0.0817    0.0071
  Pz  C    4   -0.0408   -0.0058    0.3569    0.1024    0.0045    0.0445    0.5189   -0.0458
  S   C    5    0.0397    0.0634    0.0001    0.0179    0.0167    0.0000    0.0000   -0.0001
  Px  C    5    0.1430    0.1879   -0.1051   -0.3035    0.1624    0.1161   -0.0915    0.1215
  Py  C    5    0.3749    0.1473   -0.0626   -0.1612   -0.3008    0.0696   -0.0548    0.0728
  Pz  C    5    0.0963    0.0723    0.4005   -0.1051   -0.0044   -0.4426    0.3488   -0.4631
  S   C    6    0.0608   -0.0578    0.0001   -0.0181    0.0127   -0.0001   -0.0001    0.0001
  Px  C    6    0.4049   -0.1698   -0.1078    0.2981   -0.1608    0.1338    0.0676   -0.1288
  Py  C    6   -0.0274   -0.1034   -0.0648    0.1634    0.3026    0.0800    0.0405   -0.0770
  Pz  C    6    0.1019   -0.0610    0.4116    0.1038    0.0056   -0.5091   -0.2576    0.4902
  S   H    7   -0.0255    0.3268    0.0003    0.0191   -0.2958   -0.0000   -0.0000   -0.0000
  S   H    8    0.2556    0.1216    0.0002    0.2376    0.1564    0.0000    0.0000    0.0001
  S   H    9    0.2506   -0.0935   -0.0001   -0.2535    0.1242    0.0000   -0.0000   -0.0001
  S   H   10    0.0253   -0.3268    0.0001    0.0189   -0.2958   -0.0001    0.0000   -0.0000
  S   H   11   -0.2555   -0.1217   -0.0002    0.2377    0.1565    0.0000   -0.0001    0.0000
  S   H   12   -0.2505    0.0936   -0.0003   -0.2536    0.1244   -0.0000    0.0001   -0.0001


   Root No.      17        18        19        20        21        22        23        24

                17 ????    1 b1g    19 ????   20 ????   21 ????   22 ????   23 ????   24 ????

                -5.667    -3.711    -1.855    -1.690    -1.593    -1.159    -1.091    -0.715
  
  S   C    1   -0.0002    0.0001   -0.1098   -0.0061    0.0174   -0.2226   -0.3036   -0.3178
  Px  C    1   -0.1504    0.1132   -0.0677    0.3913   -0.0907    0.2111   -0.3809   -0.1429
  Py  C    1   -0.0901    0.0679    0.1380    0.2463   -0.0753    0.3676    0.0872    0.2251
  Pz  C    1    0.5724   -0.4311    0.0039    0.1416   -0.0357    0.1132   -0.0865   -0.0022
  S   C    2   -0.0000    0.0001   -0.1408   -0.1113    0.3098    0.0310    0.2402    0.3307
  Px  C    2    0.0753   -0.0982   -0.2928    0.2924    0.1439    0.1072   -0.4089   -0.1092
  Py  C    2    0.0451   -0.0588    0.3252    0.0315   -0.3510   -0.0764    0.0157   -0.1137
  Pz  C    2   -0.2865    0.3736   -0.0258    0.0819   -0.0175    0.0162   -0.1051   -0.0467
  S   C    3   -0.0000   -0.0001    0.1309   -0.1357   -0.3306    0.2043    0.0783   -0.3431
  Px  C    3    0.0570    0.0951   -0.1514    0.1808    0.2579   -0.1330   -0.0492    0.1224
  Py  C    3    0.0342    0.0571    0.4213    0.2260   -0.2604   -0.4109   -0.0100    0.0440
  Pz  C    3   -0.2174   -0.3625    0.0266    0.0831    0.0268   -0.0998   -0.0145    0.0393
  S   C    4   -0.0002   -0.0001    0.1099    0.0076    0.0179   -0.2232   -0.3027    0.3182
  Px  C    4   -0.1504   -0.1133   -0.0672    0.3907    0.0897   -0.2099    0.3817   -0.1448
  Py  C    4   -0.0901   -0.0678    0.1384    0.2477    0.0754   -0.3674   -0.0859    0.2242
  Pz  C    4    0.5724    0.4312    0.0042    0.1417    0.0354   -0.1131    0.0866   -0.0026
  S   C    5    0.0000   -0.0000    0.1406    0.1110    0.3092    0.0324    0.2393   -0.3317
  Px  C    5    0.0753    0.0982   -0.2922    0.2912   -0.1449   -0.1065    0.4098   -0.1107
  Py  C    5    0.0451    0.0588    0.3247    0.0321    0.3511    0.0774   -0.0161   -0.1141
  Pz  C    5   -0.2868   -0.3740   -0.0256    0.0814    0.0171   -0.0157    0.1050   -0.0470
  S   C    6   -0.0000    0.0001   -0.1307    0.1343   -0.3305    0.2035    0.0798    0.3440
  Px  C    6    0.0572   -0.0954   -0.1513    0.1798   -0.2582    0.1329    0.0504    0.1230
  Py  C    6    0.0343   -0.0571    0.4204    0.2254    0.2604    0.4120    0.0105    0.0448
  Pz  C    6   -0.2177    0.3629    0.0264    0.0827   -0.0268    0.0996    0.0149    0.0392
  S   H    7    0.0001   -0.0001   -0.1651    0.0076    0.0029   -0.0311   -0.0459    0.0097
  S   H    8    0.0000   -0.0000   -0.0661   -0.1610    0.0003   -0.0122    0.0072   -0.1435
  S   H    9    0.0000    0.0001    0.0571   -0.1620    0.0085    0.0022   -0.0113    0.1831
  S   H   10    0.0001    0.0001    0.1651   -0.0073    0.0032   -0.0308   -0.0462   -0.0097
  S   H   11   -0.0000   -0.0000    0.0661    0.1611    0.0002   -0.0119    0.0082    0.1432
  S   H   12   -0.0000   -0.0001   -0.0572    0.1622    0.0078    0.0030   -0.0111   -0.1832


   Root No.      25        26        27        28        29        30

                25 ????   26 ????   27 ????   28 ????   29 ????   30 ????

                -0.086     0.288     0.328     0.434     0.856     0.922
  
  S   C    1   -0.0931   -0.0577   -0.0173    0.1590   -0.2905    0.2820
  Px  C    1    0.0288   -0.1677    0.0490   -0.0005    0.1664   -0.1772
  Py  C    1   -0.0518   -0.0599    0.0084   -0.0873   -0.2748    0.2907
  Pz  C    1   -0.0007   -0.0535    0.0142   -0.0138    0.0003   -0.0007
  S   C    2   -0.1600    0.2146   -0.2019    0.1547    0.0660    0.0126
  Px  C    2   -0.0830   -0.0562   -0.1328    0.2135   -0.0130    0.0583
  Py  C    2   -0.1742    0.1494   -0.2421    0.2713    0.0850   -0.0998
  Pz  C    2   -0.0492    0.0087   -0.0729    0.0987    0.0100   -0.0004
  S   C    3   -0.1976    0.2330    0.1601   -0.0258    0.0534   -0.0181
  Px  C    3   -0.2613    0.2814    0.2277   -0.2199    0.0582    0.0596
  Py  C    3    0.0007   -0.0566    0.0126   -0.1183   -0.0475   -0.0935
  Pz  C    3   -0.0684    0.0648    0.0616   -0.0763    0.0078    0.0010
  S   C    4   -0.0927    0.0582   -0.0158   -0.1592   -0.2899   -0.2826
  Px  C    4   -0.0290   -0.1670   -0.0520   -0.0006   -0.1659   -0.1775
  Py  C    4    0.0520   -0.0596   -0.0092   -0.0870    0.2743    0.2912
  Pz  C    4    0.0005   -0.0532   -0.0151   -0.0139   -0.0006   -0.0010
  S   C    5   -0.1601   -0.2110   -0.2054   -0.1554    0.0662   -0.0125
  Px  C    5    0.0826   -0.0589    0.1312    0.2140    0.0128    0.0583
  Py  C    5    0.1740    0.1449    0.2440    0.2720   -0.0849   -0.1001
  Pz  C    5    0.0490    0.0073    0.0729    0.0990   -0.0100   -0.0004
  S   C    6   -0.1976   -0.2358    0.1558    0.0259    0.0534    0.0183
  Px  C    6    0.2616    0.2851   -0.2219   -0.2201   -0.0582    0.0595
  Py  C    6   -0.0005   -0.0564   -0.0134   -0.1184    0.0478   -0.0934
  Pz  C    6    0.0687    0.0662   -0.0605   -0.0765   -0.0078    0.0009
  S   H    7    0.1472    0.0076    0.0337   -0.0488    0.5235   -0.5229
  S   H    8    0.3293   -0.2540    0.4231   -0.4339   -0.1071    0.0490
  S   H    9    0.4247   -0.4291   -0.3397    0.2310   -0.0862   -0.0415
  S   H   10    0.1472   -0.0082    0.0335    0.0493    0.5225    0.5239
  S   H   11    0.3290    0.2461    0.4266    0.4353   -0.1072   -0.0492
  S   H   12    0.4251    0.4349   -0.3313   -0.2314   -0.0862    0.0413


           BETA EIGENVECTORS  


   Root No.       1         2         3         4         5         6         7         8

                 1 a1g     2 ????    3 ????    4 ????    5 ????    2 a1g     1 b1u     1 b2u 

               -36.827   -32.201   -31.841   -27.038   -26.844   -23.844   -21.293   -21.191
  
  S   C    1    0.3582   -0.0304    0.4773   -0.0313    0.3627    0.0803   -0.0000    0.2289
  Px  C    1    0.0760    0.1851    0.0206   -0.2841   -0.0855   -0.1735   -0.3322   -0.0942
  Py  C    1   -0.1240    0.1169   -0.0065   -0.1859    0.0821    0.2847   -0.2080    0.1445
  Pz  C    1    0.0005    0.0670    0.0045   -0.1039   -0.0095   -0.0008   -0.1200   -0.0020
  S   C    2    0.3725    0.4015    0.2757   -0.2994   -0.1987    0.0589   -0.0008   -0.2083
  Px  C    2   -0.0562    0.1099   -0.1682    0.1247   -0.2992    0.1264    0.3487   -0.1292
  Py  C    2   -0.1250   -0.0705    0.0897   -0.1909    0.0628    0.2954   -0.2027   -0.2025
  Pz  C    2   -0.0345    0.0177   -0.0301    0.0028   -0.0688    0.0797    0.0599   -0.0658
  S   C    3    0.3750    0.4360   -0.2206    0.3266   -0.1468    0.0552   -0.0007    0.2039
  Px  C    3   -0.1359   -0.0123   -0.0086    0.1322   -0.0555    0.3197   -0.0269    0.2541
  Py  C    3    0.0037    0.1039    0.2067   -0.1457   -0.3253   -0.0136    0.4021    0.0228
  Pz  C    3   -0.0352    0.0130    0.0303    0.0117   -0.0658    0.0818    0.0564    0.0702
  S   C    4    0.3583    0.0303   -0.4773   -0.0313    0.3628    0.0802   -0.0000   -0.2289
  Px  C    4   -0.0761    0.1851    0.0207    0.2841    0.0856    0.1734   -0.3323   -0.0946
  Py  C    4    0.1240    0.1168   -0.0064    0.1858   -0.0820   -0.2847   -0.2079    0.1444
  Pz  C    4   -0.0004    0.0670    0.0043    0.1039    0.0097    0.0008   -0.1200   -0.0022
  S   C    5    0.3726   -0.4015   -0.2758   -0.2992   -0.1987    0.0590    0.0008    0.2083
  Px  C    5    0.0562    0.1098   -0.1683   -0.1247    0.2993   -0.1264    0.3487   -0.1290
  Py  C    5    0.1250   -0.0704    0.0897    0.1909   -0.0629   -0.2954   -0.2027   -0.2025
  Pz  C    5    0.0344    0.0178   -0.0301   -0.0027    0.0687   -0.0797    0.0596   -0.0657
  S   C    6    0.3751   -0.4358    0.2208    0.3266   -0.1469    0.0552    0.0006   -0.2040
  Px  C    6    0.1359   -0.0124   -0.0086   -0.1320    0.0555   -0.3195   -0.0269    0.2540
  Py  C    6   -0.0037    0.1038    0.2068    0.1457    0.3254    0.0137    0.4022    0.0227
  Pz  C    6    0.0351    0.0131    0.0303   -0.0118    0.0658   -0.0818    0.0561    0.0704
  S   H    7    0.0969   -0.0129    0.2043   -0.0181    0.2247    0.2322   -0.0006    0.2241
  S   H    8    0.1042    0.1746    0.1211   -0.1950   -0.1406    0.2276   -0.0060   -0.2694
  S   H    9    0.1056    0.1907   -0.0975    0.2182   -0.1069    0.2270   -0.0053    0.2794
  S   H   10    0.0969    0.0129   -0.2043   -0.0180    0.2247    0.2322    0.0005   -0.2242
  S   H   11    0.1042   -0.1746   -0.1212   -0.1949   -0.1406    0.2277    0.0060    0.2692
  S   H   12    0.1056   -0.1905    0.0975    0.2181   -0.1069    0.2270    0.0052   -0.2794


   Root No.       9        10        11        12        13        14        15        16

                 9 ????   10 ????    1 a2u    12 ????   13 ????   14 ????   15 ????    1 e2u 

               -20.266   -20.140   -18.412   -17.914   -17.765   -15.928    -9.126    -5.270
  
  S   C    1   -0.0034   -0.0279   -0.0001    0.0026    0.0306    0.0002    0.0000   -0.0002
  Px  C    1   -0.0943   -0.2710   -0.1201   -0.3023   -0.1718    0.1486    0.0147   -0.1291
  Py  C    1   -0.0836    0.4273   -0.0711   -0.1548    0.3250    0.0890    0.0087   -0.0773
  Pz  C    1   -0.0381   -0.0040    0.4536   -0.1047    0.0051   -0.5651   -0.0555    0.4912
  S   C    2   -0.0464   -0.0557    0.0000    0.0196   -0.0123   -0.0001    0.0001   -0.0000
  Px  C    2    0.1293    0.1844   -0.0950    0.3009    0.1594    0.0797   -0.1197    0.1093
  Py  C    2    0.3826    0.1447   -0.0574    0.1551   -0.3065    0.0477   -0.0715    0.0654
  Pz  C    2    0.0940    0.0713    0.3643    0.1029   -0.0069   -0.3031    0.4550   -0.4157
  S   C    3   -0.0594    0.0527    0.0001   -0.0198   -0.0088    0.0001    0.0002   -0.0000
  Px  C    3    0.4025   -0.1830   -0.0909   -0.2967   -0.1593   -0.0562   -0.1305    0.0544
  Py  C    3   -0.0458   -0.1040   -0.0540   -0.1558    0.3052   -0.0337   -0.0785    0.0326
  Pz  C    3    0.0983   -0.0645    0.3440   -0.1030    0.0059    0.2141    0.4973   -0.2074
  S   C    4    0.0034    0.0279   -0.0001    0.0026    0.0306   -0.0002   -0.0000   -0.0002
  Px  C    4   -0.0945   -0.2710   -0.1185    0.3026    0.1722   -0.1485   -0.0147   -0.1291
  Py  C    4   -0.0833    0.4273   -0.0717    0.1552   -0.3249   -0.0889   -0.0087   -0.0773
  Pz  C    4   -0.0381   -0.0040    0.4539    0.1033   -0.0067    0.5651    0.0557    0.4911
  S   C    5    0.0464    0.0557    0.0001    0.0197   -0.0122    0.0000   -0.0000    0.0000
  Px  C    5    0.1295    0.1845   -0.0963   -0.3006   -0.1589   -0.0795    0.1193    0.1091
  Py  C    5    0.3824    0.1448   -0.0569   -0.1549    0.3069   -0.0477    0.0715    0.0654
  Pz  C    5    0.0940    0.0711    0.3643   -0.1038    0.0058    0.3033   -0.4547   -0.4158
  S   C    6    0.0593   -0.0526    0.0000   -0.0200   -0.0087   -0.0000   -0.0001   -0.0000
  Px  C    6    0.4024   -0.1831   -0.0897    0.2971    0.1598    0.0562    0.1306    0.0545
  Py  C    6   -0.0456   -0.1040   -0.0544    0.1559   -0.3050    0.0337    0.0782    0.0327
  Pz  C    6    0.0984   -0.0645    0.3446    0.1019   -0.0067   -0.2143   -0.4970   -0.2075
  S   H    7   -0.0156    0.3189    0.0006    0.0225    0.2895   -0.0000   -0.0001    0.0001
  S   H    8    0.2572    0.1245    0.0002    0.2381   -0.1625    0.0000    0.0000    0.0000
  S   H    9    0.2550   -0.1074   -0.0005   -0.2599   -0.1241    0.0000    0.0000   -0.0000
  S   H   10    0.0154   -0.3189    0.0005    0.0223    0.2895    0.0000   -0.0001    0.0001
  S   H   11   -0.2571   -0.1246   -0.0000    0.2382   -0.1626   -0.0001    0.0000   -0.0000
  S   H   12   -0.2549    0.1075   -0.0007   -0.2601   -0.1242    0.0001    0.0000   -0.0000


   Root No.      17        18        19        20        21        22        23        24

                 1 e2u     1 b1g    19 ????   20 ????   21 ????   22 ????   23 ????    2 b2u 

                -5.189    -3.311    -1.753    -1.642    -1.482    -1.103    -1.044    -0.662
  
  S   C    1    0.0001    0.0001   -0.1123   -0.0045   -0.0186   -0.2670   -0.2628   -0.3144
  Px  C    1    0.0264    0.0964   -0.0707    0.3852    0.0941    0.1437   -0.4040   -0.1386
  Py  C    1    0.0158    0.0578    0.1435    0.2401    0.0777    0.3701    0.0272    0.2187
  Pz  C    1   -0.0999   -0.3670    0.0040    0.1390    0.0370    0.0959   -0.1020   -0.0021
  S   C    2   -0.0001    0.0001   -0.1324   -0.1112   -0.3116    0.0686    0.2284    0.3357
  Px  C    2    0.1024   -0.1046   -0.2935    0.2979   -0.1388    0.0401   -0.4283   -0.1051
  Py  C    2    0.0613   -0.0626    0.3217    0.0356    0.3486   -0.0796    0.0269   -0.1189
  Pz  C    2   -0.3894    0.3978   -0.0266    0.0840    0.0184   -0.0019   -0.1085   -0.0465
  S   C    3    0.0002   -0.0001    0.1227   -0.1341    0.3338    0.2098    0.0432   -0.3480
  Px  C    3   -0.1428    0.1063   -0.1483    0.1866   -0.2611   -0.1429   -0.0329    0.1283
  Py  C    3   -0.0858    0.0638    0.4235    0.2277    0.2548   -0.4153    0.0591    0.0386
  Pz  C    3    0.5438   -0.4050    0.0278    0.0848   -0.0285   -0.1031    0.0007    0.0399
  S   C    4    0.0000   -0.0001    0.1123    0.0058   -0.0191   -0.2675   -0.2618    0.3148
  Px  C    4    0.0262   -0.0965   -0.0702    0.3846   -0.0936   -0.1425    0.4046   -0.1404
  Py  C    4    0.0157   -0.0577    0.1438    0.2413   -0.0780   -0.3697   -0.0261    0.2179
  Pz  C    4   -0.1000    0.3670    0.0042    0.1391   -0.0369   -0.0958    0.1021   -0.0025
  S   C    5   -0.0001   -0.0000    0.1324    0.1106   -0.3111    0.0697    0.2274   -0.3367
  Px  C    5    0.1021    0.1045   -0.2929    0.2969    0.1393   -0.0394    0.4291   -0.1066
  Py  C    5    0.0612    0.0626    0.3213    0.0357   -0.3486    0.0805   -0.0274   -0.1194
  Pz  C    5   -0.3892   -0.3981   -0.0263    0.0834   -0.0182    0.0024    0.1082   -0.0467
  S   C    6    0.0001    0.0001   -0.1226    0.1331    0.3334    0.2093    0.0448    0.3489
  Px  C    6   -0.1428   -0.1065   -0.1483    0.1861    0.2611    0.1430    0.0341    0.1288
  Py  C    6   -0.0854   -0.0638    0.4228    0.2269   -0.2549    0.4164   -0.0589    0.0393
  Pz  C    6    0.5436    0.4052    0.0275    0.0846    0.0284    0.1030   -0.0002    0.0399
  S   H    7   -0.0000   -0.0001   -0.1702    0.0083   -0.0019   -0.0375   -0.0400    0.0136
  S   H    8    0.0000   -0.0000   -0.0696   -0.1637    0.0013   -0.0016    0.0153   -0.1426
  S   H    9   -0.0001    0.0001    0.0598   -0.1649   -0.0082    0.0067   -0.0027    0.1781
  S   H   10   -0.0001    0.0001    0.1701   -0.0081   -0.0021   -0.0372   -0.0403   -0.0136
  S   H   11    0.0000   -0.0000    0.0696    0.1638    0.0011   -0.0012    0.0162    0.1423
  S   H   12   -0.0001   -0.0001   -0.0599    0.1651   -0.0078    0.0076   -0.0027   -0.1783


   Root No.      25        26        27        28        29        30

                25 ????   26 ????   27 ????   28 ????   29 ????   30 ????

                -0.026     0.383     0.389     0.490     0.836     0.898
  
  S   C    1   -0.0927   -0.0565   -0.0196    0.1625   -0.2871    0.2767
  Px  C    1    0.0393   -0.1718    0.0403   -0.0085    0.1629   -0.1757
  Py  C    1   -0.0676   -0.0625    0.0031   -0.0801   -0.2706    0.2911
  Pz  C    1   -0.0004   -0.0550    0.0111   -0.0148    0.0001   -0.0002
  S   C    2   -0.1687    0.2254   -0.1867    0.1606    0.0750    0.0107
  Px  C    2   -0.0798   -0.0547   -0.1354    0.2151   -0.0104    0.0555
  Py  C    2   -0.1793    0.1611   -0.2308    0.2722    0.0933   -0.1096
  Pz  C    2   -0.0492    0.0109   -0.0718    0.0993    0.0120   -0.0027
  S   C    3   -0.1999    0.2297    0.1796   -0.0245    0.0594   -0.0198
  Px  C    3   -0.2534    0.2706    0.2540   -0.2182    0.0652    0.0674
  Py  C    3    0.0055   -0.0594    0.0100   -0.1241   -0.0492   -0.0941
  Pz  C    3   -0.0655    0.0616    0.0681   -0.0768    0.0094    0.0029
  S   C    4   -0.0923    0.0588   -0.0117   -0.1628   -0.2867   -0.2770
  Px  C    4   -0.0396   -0.1652   -0.0625   -0.0087   -0.1626   -0.1758
  Py  C    4    0.0677   -0.0615   -0.0110   -0.0798    0.2704    0.2914
  Pz  C    4    0.0002   -0.0530   -0.0181   -0.0150   -0.0004   -0.0005
  S   C    5   -0.1689   -0.1990   -0.2143   -0.1611    0.0752   -0.0106
  Px  C    5    0.0793   -0.0722    0.1266    0.2155    0.0102    0.0555
  Py  C    5    0.1790    0.1294    0.2493    0.2729   -0.0934   -0.1099
  Pz  C    5    0.0489    0.0014    0.0725    0.0995   -0.0120   -0.0027
  S   C    6   -0.1999   -0.2512    0.1480    0.0245    0.0594    0.0199
  Px  C    6    0.2539    0.3012   -0.2159   -0.2184   -0.0652    0.0674
  Py  C    6   -0.0054   -0.0577   -0.0174   -0.1242    0.0494   -0.0941
  Pz  C    6    0.0660    0.0702   -0.0595   -0.0769   -0.0093    0.0029
  S   H    7    0.1678    0.0065    0.0352   -0.0612    0.5192   -0.5221
  S   H    8    0.3335   -0.2679    0.3964   -0.4319   -0.1210    0.0591
  S   H    9    0.4097   -0.4064   -0.3709    0.2237   -0.0963   -0.0472
  S   H   10    0.1678   -0.0110    0.0340    0.0618    0.5185    0.5226
  S   H   11    0.3332    0.2135    0.4273    0.4330   -0.1212   -0.0593
  S   H   12    0.4102    0.4511   -0.3142   -0.2238   -0.0962    0.0470


              NET ATOMIC CHARGES AND DIPOLE CONTRIBUTIONS

  ATOM NO.   TYPE          CHARGE      No. of ELECS.   s-Pop       p-Pop       
    1          C          -0.198498        4.1985     1.09370     3.10480
    2          C           0.021836        3.9782     1.12059     2.85757
    3          C           0.063458        3.9365     1.12593     2.81062
    4          C          -0.198598        4.1986     1.09372     3.10487
    5          C           0.021758        3.9782     1.12053     2.85771
    6          C           0.063235        3.9368     1.12586     2.81090
    7          H           0.210670        0.7893     0.78933
    8          H           0.202253        0.7977     0.79775
    9          H           0.200388        0.7996     0.79961
   10          H           0.210709        0.7893     0.78929
   11          H           0.202303        0.7977     0.79770
   12          H           0.200487        0.7995     0.79951
 DIPOLE           X         Y         Z       TOTAL
 POINT-CHG.     0.000     0.000     0.001     0.001
 HYBRID         0.000     0.000     0.001     0.001
 SUM            0.000     0.000     0.002     0.002


          ATOMIC ORBITAL ELECTRON POPULATIONS

     Atom    s        px        py        pz   
    1  C   1.09370   1.01567   1.08212   1.00700
    2  C   1.12059   0.99526   1.06747   0.79484
    3  C   1.12593   1.08636   0.97157   0.75269
    4  C   1.09372   1.01574   1.08209   1.00705
    5  C   1.12053   0.99523   1.06748   0.79500
    6  C   1.12586   1.08643   0.97162   0.75286
    7  H   0.78933
    8  H   0.79775
    9  H   0.79961
   10  H   0.78929
   11  H   0.79770
   12  H   0.79951


                    (SZ)    =    0.500000
                    (S**2)  =    0.797231


          ATOMIC ORBITAL SPIN POPULATIONS

    Atom   Total    s     px     py     pz   
         Atomic
    1  C -0.1670 -0.007 -0.020 -0.013 -0.127
    2  C  0.2925  0.005  0.025  0.009  0.253
    3  C  0.3897  0.008  0.032  0.017  0.333
    4  C -0.1670 -0.007 -0.019 -0.013 -0.127
    5  C  0.2920  0.005  0.025  0.009  0.253
    6  C  0.3892  0.008  0.032  0.017  0.332
    7  H  0.0043  0.004
    8  H -0.0082 -0.008
    9  H -0.0108 -0.011
   10  H  0.0042  0.004
   11  H -0.0081 -0.008
   12  H -0.0108 -0.011

           DATA FOR GRAPH WRITTEN TO DISK

 **********************
 *                    *
 * JOB ENDED NORMALLY *
 *                    *
 **********************



 TOTAL JOB TIME:             0.12 SECONDS

 == MOPAC DONE ==
