
                                 *****************
                                 * O   R   C   A *
                                 *****************

           --- An Ab Initio, DFT and Semiempirical electronic structure package ---

                  #######################################################
                  #                        -***-                        #
                  #  Department of molecular theory and spectroscopy    #
                  #              Directorship: Frank Neese              #
                  # Max Planck Institute for Chemical Energy Conversion #
                  #                  D-45470 Muelheim/Ruhr              #
                  #                       Germany                       #
                  #                                                     #
                  #                  All rights reserved                #
                  #                        -***-                        #
                  #######################################################


                         Program Version 3.0.3 - RELEASE   -


 With contributions from (in alphabetic order):
   Ute Becker             : Parallelization
   Dmytro Bykov           : SCF Hessian
   Dmitry Ganyushin       : Spin-Orbit,Spin-Spin,Magnetic field MRCI
   Andreas Hansen         : Spin unrestricted coupled pair/coupled cluster methods
   Dimitrios Liakos       : Extrapolation schemes; parallel MDCI
   Robert Izsak           : Overlap fitted RIJCOSX, COSX-SCS-MP3
   Christian Kollmar      : KDIIS, OOCD, Brueckner-CCSD(T), CCSD density
   Simone Kossmann        : Meta GGA functionals, TD-DFT gradient, OOMP2, MP2 Hessian
   Taras Petrenko         : DFT Hessian,TD-DFT gradient, ASA and ECA modules, normal mode analysis, Resonance Raman, ABS, FL, XAS/XES, NRVS
   Christoph Reimann      : Effective Core Potentials
   Michael Roemelt        : Restricted open shell CIS
   Christoph Riplinger    : Improved optimizer, TS searches, QM/MM, DLPNO-CCSD
   Barbara Sandhoefer     : DKH picture change effects
   Igor Schapiro          : Molecular dynamics
   Kantharuban Sivalingam : CASSCF convergence, NEVPT2
   Boris Wezisla          : Elementary symmetry handling
   Frank Wennmohs         : Technical directorship


 We gratefully acknowledge several colleagues who have allowed us to
 interface, adapt or use parts of their codes:
   Stefan Grimme, W. Hujo, H. Kruse, T. Risthaus : VdW corrections, initial TS optimization,
                                                   DFT functionals, gCP
   Ed Valeev                                     : LibInt (2-el integral package), F12 methods
   Garnet Chan, S. Sharma, R. Olivares           : DMRG
   Ulf Ekstrom                                   : XCFun DFT Library
   Mihaly Kallay                                 : mrcc  (arbitrary order and MRCC methods)
   Andreas Klamt, Michael Diedenhofen            : otool_cosmo (COSMO solvation model)
   Frank Weinhold                                : gennbo (NPA and NBO analysis)
   Christopher J. Cramer and Donald G. Truhlar   : smd solvation model


 Your calculation uses the libint2 library for the computation of 2-el integrals
 For citations please refer to: http://libint.valeyev.net

 This ORCA versions uses:
   CBLAS   interface :  Fast vector & matrix operations
   LAPACKE interface :  Fast linear algebra routines
   SCALAPACK package :  Parallel linear algebra routines


Your calculation utilizes the basis: 6-311G
Cite in your paper:
H, Li - Ne: R. Krishnan, J.S. Binkley, R. Seeger and J.A. Pople,
            J. Chem. Phys. 72, 650 (1980)
Na - Ar:    A.D. McLean and G.S. Chandler J. Chem. Phys. 72, 5639, (1980).
K  - Ca:    J-P. Blaudeau, M. P. McGrath, L.A. Curtiss and L. Radom,
            J. Chem. Phys. 107, 5016 (1997).
Ga - Kr:    L. A. Curtiss, M. P. McGrath, J-P. Blandeau, N. E. Davis,
            R. C. Binning, Jr. L. Radom, J. Chem. Phys. 103, 6104 (1995).

Your calculation utilizes diff. fcns from basis: 6-311++G(2d,2p)
Cite in your paper:
H, Li - Ne: R. Krishnan, J.S. Binkley, R. Seeger and J.A. Pople,
            J. Chem. Phys. 72, 650 (1980)
Na - Ar:    A.D. McLean and G.S. Chandler J. Chem. Phys. 72, 5639, (1980).
K  - Ca:    J-P. Blaudeau, M. P. McGrath, L.A. Curtiss and L. Radom,
            J. Chem. Phys. 107, 5016 (1997).
Ga - Kr:    L. A. Curtiss, M. P. McGrath, J-P. Blandeau, N. E. Davis,
            R. C. Binning, Jr. L. Radom, J. Chem. Phys. 103, 6104 (1995).
H - Ar:  R. Krishnan, J.S. Binkley, R. Seeger, J.A. Pople, J. Chem. Phys. 72,650 (1980)
H, Li-Cl: T. Clark, J. Chandrasekhar, P.V.R. Schleyer, J. Comp. Chem. 4, 294 (1983)

Your calculation utilizes pol. fcns from basis: 6-311++G(d,p)
Cite in your paper:
H, Li - Ne: R. Krishnan, J.S. Binkley, R. Seeger and J.A. Pople,
            J. Chem. Phys. 72, 650 (1980)
Na - Ar:    A.D. McLean and G.S. Chandler J. Chem. Phys. 72, 5639, (1980).
K  - Ca:    J-P. Blaudeau, M. P. McGrath, L.A. Curtiss and L. Radom,
            J. Chem. Phys. 107, 5016 (1997).
Ga - Kr:    L. A. Curtiss, M. P. McGrath, J-P. Blandeau, N. E. Davis,
            R. C. Binning, Jr. L. Radom, J. Chem. Phys. 103, 6104 (1995).
H - Ar:  R. Krishnan, J.S. Binkley, R. Seeger, J.A. Pople, J. Chem. Phys. 72,650 (1980)
H, Li-Cl: T. Clark, J. Chandrasekhar, P.V.R. Schleyer, J. Comp. Chem. 4, 294 (1983)

================================================================================
                                        WARNINGS
                       Please study these warnings very carefully!
================================================================================
Now building the actual basis set


INFO   : the flag for use of LIBINT has been found!

================================================================================
                                       INPUT FILE
================================================================================
NAME = acrolein_orca.inp
|  1> # ================================================================
|  2> # Orca input file made in Gabedit
|  3> # ================================================================
|  4> !  HF 
|  5> ! PrintBasis 6-311+G*
|  6> %output
|  7>      print[p_mos] 1
|  8>      print[p_overlap] 5 
|  9>  end #output
| 10> * xyz 0   1
| 11>  C  0.811276 0.464703 0.000085
| 12>  C  -0.666979 0.602652 -0.000083
| 13>  C  -1.468478 -0.468578 0.000045
| 14>  H  -1.067523 1.614725 -0.000234
| 15>  H  -2.550922 -0.381565 -0.000017
| 16>  H  -1.040888 -1.467756 0.000243
| 17>  H  1.374133 1.423218 0.000372
| 18>  O  1.403786 -0.597661 -0.000081
| 19> *
| 20> 
| 21>                          ****END OF INPUT****
================================================================================

                       ****************************
                       * Single Point Calculation *
                       ****************************

---------------------------------
CARTESIAN COORDINATES (ANGSTROEM)
---------------------------------
  C      0.811276    0.464703    0.000085
  C     -0.666979    0.602652   -0.000083
  C     -1.468478   -0.468578    0.000045
  H     -1.067523    1.614725   -0.000234
  H     -2.550922   -0.381565   -0.000017
  H     -1.040888   -1.467756    0.000243
  H      1.374133    1.423218    0.000372
  O      1.403786   -0.597661   -0.000081

----------------------------
CARTESIAN COORDINATES (A.U.)
----------------------------
  NO LB      ZA    FRAG    MASS        X           Y           Z
   0 C     6.0000    0    12.011          1.533089459023097          0.878161403611607          0.000160626721383
   1 C     6.0000    0    12.011         -1.260407647076663          1.138847234059910         -0.000156847269115
   2 C     6.0000    0    12.011         -2.775021253688412         -0.885484092380552          0.000085037676026
   3 H     1.0000    0     1.008         -2.017326111662016          3.051388031595993         -0.000442195915338
   4 H     1.0000    0     1.008         -4.820543968994667         -0.721053352289662         -0.000032125344277
   5 H     1.0000    0     1.008         -1.966993256085024         -2.773656871419721          0.000459203450543
   6 H     1.0000    0     1.008          2.596735041583611          2.689492248867136          0.000702978121819
   7 O     8.0000    0    15.999          2.652771090632778         -1.129415610925509         -0.000153067816848

--------------------------------
INTERNAL COORDINATES (ANGSTROEM)
--------------------------------
 C      0   0   0   0.000000     0.000     0.000
 C      1   0   0   1.484678     0.000     0.000
 C      2   1   0   1.337884   121.473     0.000
 H      2   1   3   1.088452   116.923   179.995
 H      3   2   1   1.085936   122.208   179.996
 H      3   2   1   1.086826   120.028     0.000
 H      1   2   3   1.111557   115.091   180.024
 O      1   2   3   1.216423   124.481     0.024

---------------------------
INTERNAL COORDINATES (A.U.)
---------------------------
 C      0   0   0   0.000000     0.000     0.000
 C      1   0   0   2.805634     0.000     0.000
 C      2   1   0   2.528235   121.473     0.000
 H      2   1   3   2.056876   116.923   179.995
 H      3   2   1   2.052121   122.208   179.996
 H      3   2   1   2.053803   120.028     0.000
 H      1   2   3   2.100538   115.091   180.024
 O      1   2   3   2.298707   124.481     0.024

---------------------
BASIS SET INFORMATION
---------------------
There are 3 groups of distinct atoms

 Group   1 Type C   : 12s6p1d contracted to 5s4p1d pattern {63111/3111/1}
 Group   2 Type H   : 5s contracted to 3s pattern {311}
 Group   3 Type O   : 12s6p1d contracted to 5s4p1d pattern {63111/3111/1}

Atom   0C    basis set group =>   1
Atom   1C    basis set group =>   1
Atom   2C    basis set group =>   1
Atom   3H    basis set group =>   2
Atom   4H    basis set group =>   2
Atom   5H    basis set group =>   2
Atom   6H    basis set group =>   2
Atom   7O    basis set group =>   3

-------------------------
BASIS SET IN INPUT FORMAT
-------------------------

 # Basis set for element : H 
 NewGTO H 
 S 3 
   1      33.8650000000      0.0254938145
   2       5.0947900000      0.1903731086
   3       1.1587900000      0.8521614860
 S 1 
   1       0.3258400000      1.0000000000
 S 1 
   1       0.1027410000      1.0000000000
  end;

 # Basis set for element : C 
 NewGTO C 
 S 6 
   1    4563.2400000000      0.0019666502
   2     682.0240000000      0.0152306019
   3     154.9730000000      0.0761269097
   4      44.4553000000      0.2608010331
   5      13.0290000000      0.6164620782
   6       1.8277300000      0.2210060280
 S 3 
   1      20.9642000000      0.1146600807
   2       4.8033100000      0.9199996477
   3       1.4593300000     -0.0030306821
 P 3 
   1      20.9642000000      0.0402486927
   2       4.8033100000      0.2375939567
   3       1.4593300000      0.8158538515
 S 1 
   1       0.4834560000      1.0000000000
 P 1 
   1       0.4834560000      1.0000000000
 S 1 
   1       0.1455850000      1.0000000000
 P 1 
   1       0.1455850000      1.0000000000
 S 1 
   1       0.0438000000      1.0000000000
 P 1 
   1       0.0438000000      1.0000000000
 D 1 
   1       0.6260000000      1.0000000000
  end;

 # Basis set for element : O 
 NewGTO O 
 S 6 
   1    8588.5000000000      0.0018951501
   2    1297.2300000000      0.0143859006
   3     299.2960000000      0.0707320031
   4      87.3771000000      0.2400010105
   5      25.6789000000      0.5947970261
   6       3.7400400000      0.2808020123
 S 3 
   1      42.1175000000      0.1138890124
   2       9.6283700000      0.9208111006
   3       2.8533200000     -0.0032744704
 P 3 
   1      42.1175000000      0.0365113974
   2       9.6283700000      0.2371529830
   3       2.8533200000      0.8197019412
 S 1 
   1       0.9056610000      1.0000000000
 P 1 
   1       0.9056610000      1.0000000000
 S 1 
   1       0.2556110000      1.0000000000
 P 1 
   1       0.2556110000      1.0000000000
 S 1 
   1       0.0845000000      1.0000000000
 P 1 
   1       0.0845000000      1.0000000000
 D 1 
   1       1.2920000000      1.0000000000
  end;

------------------------------------------------------------------------------
                           ORCA GTO INTEGRAL CALCULATION
------------------------------------------------------------------------------

                         BASIS SET STATISTICS AND STARTUP INFO

 # of primitive gaussian shells          ...   96
 # of primitive gaussian functions       ...  160
 # of contracted shell                   ...   52
 # of contracted basis functions         ...  100
 Highest angular momentum                ...    2
 Maximum contraction depth               ...    6
 Integral package used                   ... LIBINT
 Integral threshhold            Thresh   ...  1.000e-10
 Primitive cut-off              TCut     ...  1.000e-11


                              INTEGRAL EVALUATION

 One electron integrals                  ... done
 Pre-screening matrix                    ... done
 Shell pair data                         ... done (   0.001 sec)

-------------------------------------------------------------------------------
                                 ORCA SCF
-------------------------------------------------------------------------------

------------
SCF SETTINGS
------------
Hamiltonian:
 Ab initio Hamiltonian  Method          .... Hartree-Fock(GTOs)


General Settings:
 Integral files         IntName         .... acrolein_orca
 Hartree-Fock type      HFTyp           .... RHF
 Total Charge           Charge          ....    0
 Multiplicity           Mult            ....    1
 Number of Electrons    NEL             ....   30
 Basis Dimension        Dim             ....  100
 Nuclear Repulsion      ENuc            ....    104.3857846241 Eh

Convergence Acceleration:
 DIIS                   CNVDIIS         .... on
   Start iteration      DIISMaxIt       ....    12
   Startup error        DIISStart       ....  0.200000
   # of expansion vecs  DIISMaxEq       ....     5
   Bias factor          DIISBfac        ....   1.050
   Max. coefficient     DIISMaxC        ....  10.000
 Newton-Raphson         CNVNR           .... off
 SOSCF                  CNVSOSCF        .... on
   Start iteration      SOSCFMaxIt      ....   150
   Startup grad/error   SOSCFStart      ....  0.003300
 Level Shifting         CNVShift        .... on
   Level shift para.    LevelShift      ....    0.2500
   Turn off err/grad.   ShiftErr        ....    0.0010
 Zerner damping         CNVZerner       .... off
 Static damping         CNVDamp         .... on
   Fraction old density DampFac         ....    0.7000
   Max. Damping (<1)    DampMax         ....    0.9800
   Min. Damping (>=0)   DampMin         ....    0.0000
   Turn off err/grad.   DampErr         ....    0.1000
 Fernandez-Rico         CNVRico         .... off

SCF Procedure:
 Maximum # iterations   MaxIter         ....   125
 SCF integral mode      SCFMode         .... Direct
   Integral package                     .... LIBINT
 Reset frequeny         DirectResetFreq ....    20
 Integral Threshold     Thresh          ....  1.000e-10 Eh
 Primitive CutOff       TCut            ....  1.000e-11 Eh

Convergence Tolerance:
 Convergence Check Mode ConvCheckMode   .... Total+1el-Energy
 Energy Change          TolE            ....  1.000e-06 Eh
 1-El. energy change                    ....  1.000e-03 Eh
 Orbital Gradient       TolG            ....  5.000e-05
 Orbital Rotation angle TolX            ....  5.000e-05
 DIIS Error             TolErr          ....  1.000e-06


Diagonalization of the overlap matrix:
Smallest eigenvalue                        ... 9.535e-05
Time for diagonalization                   ...    0.150 sec
Threshold for overlap eigenvalues          ... 1.000e-08
Number of eigenvalues below threshold      ... 0
Time for construction of square roots      ...    0.001 sec
Total time needed                          ...    0.152 sec

--------------
OVERLAP MATRIX
--------------
                  0          1          2          3          4          5    
      0       1.000000   0.878444  -0.000000   0.000000   0.000000   0.329179
      1       0.878444   1.000000   0.000000   0.000000   0.000000   0.418800
      2      -0.000000   0.000000   1.000000   0.000000   0.000000   0.000000
      3       0.000000   0.000000   0.000000   1.000000   0.000000   0.000000
      4       0.000000   0.000000   0.000000   0.000000   1.000000  -0.000000
      5       0.329179   0.418800   0.000000   0.000000  -0.000000   1.000000
      6       0.000000  -0.000000   0.629120   0.000000   0.000000   0.000000
      7       0.000000  -0.000000   0.000000   0.629120   0.000000   0.000000
      8       0.000000  -0.000000   0.000000   0.000000   0.629120   0.000000
      9       0.153761   0.187145  -0.000000   0.000000  -0.000000   0.774697
     10      -0.000000   0.000000   0.220230   0.000000   0.000000  -0.000000
     11      -0.000000   0.000000   0.000000   0.220230   0.000000  -0.000000
     12      -0.000000   0.000000   0.000000   0.000000   0.220230  -0.000000
     13       0.065562   0.078316  -0.000000   0.000000  -0.000000   0.410096
     14       0.000000  -0.000000   0.057350   0.000000   0.000000   0.000000
     15       0.000000   0.000000   0.000000   0.057350   0.000000   0.000000
     16       0.000000  -0.000000   0.000000   0.000000   0.057350   0.000000
     17       0.000000   0.000000   0.000000  -0.000000   0.000000   0.000000
     18       0.000000  -0.000000   0.000000   0.000000   0.000000   0.000000
     19       0.000000   0.000000  -0.000000   0.000000   0.000000   0.000000
     20       0.000000   0.000000   0.000000   0.000000   0.000000   0.000000
     21       0.000000   0.000000   0.000000  -0.000000   0.000000   0.000000
     22       0.000037   0.000004  -0.000000  -0.001184   0.000110   0.012189
     23       0.000004  -0.000001  -0.000000  -0.000428   0.000040   0.012997
     24       0.000000   0.000000   0.002170  -0.000003   0.000000   0.000008
     25       0.001184   0.000428  -0.000003  -0.022779   0.002328   0.066948
     26      -0.000110  -0.000040   0.000000   0.002328   0.001953  -0.006247
     27       0.012189   0.012997  -0.000008  -0.066948   0.006247   0.149153
     28       0.000005   0.000005   0.034467  -0.000022   0.000002   0.000033
     29       0.040332   0.046079  -0.000022  -0.163209   0.018447   0.289707
     30      -0.003764  -0.004300   0.000002   0.018447   0.032746  -0.027035
     31       0.051477   0.061439  -0.000009  -0.082383   0.007688   0.321087
     32       0.000012   0.000014   0.077292  -0.000018   0.000002   0.000060
     33       0.104720   0.127300  -0.000018  -0.083148   0.014972   0.526063
     34      -0.009772  -0.011879   0.000002   0.014972   0.075894  -0.049092
     35       0.046675   0.055642  -0.000003  -0.023980   0.002238   0.298945
     36       0.000006   0.000007   0.041017  -0.000003   0.000000   0.000036
     37       0.053787   0.064501  -0.000003   0.013757   0.002544   0.320510
     38      -0.005019  -0.006019   0.000000   0.002544   0.040779  -0.029910
     39      -0.023728  -0.027507   0.000025   0.098986  -0.009237  -0.124634
     40       0.000009   0.000011   0.068532  -0.000046   0.000005   0.000049
     41      -0.000001  -0.000001  -0.006395   0.000005   0.000007  -0.000005
     42       0.040388   0.046820  -0.000027  -0.167305   0.028403   0.212146
     43      -0.007604  -0.008815   0.000005   0.038007   0.064389  -0.039942
     44       0.000000  -0.000000  -0.000000  -0.000000  -0.000000   0.000047
     45      -0.000000   0.000000   0.000000   0.000000   0.000000   0.000029
     46       0.000000  -0.000000   0.000000  -0.000000  -0.000000   0.000000
     47       0.000000  -0.000000  -0.000000  -0.000002  -0.000001   0.000663
     48       0.000000  -0.000000  -0.000000  -0.000001  -0.000000   0.000271
     49       0.000047   0.000029  -0.000000  -0.000663  -0.000271   0.005309
     50       0.000000   0.000000   0.000221  -0.000000  -0.000000   0.000000
     51       0.000232   0.000161  -0.000000  -0.002774  -0.001226   0.015904
     52       0.000095   0.000066  -0.000000  -0.001226  -0.000281   0.006511
     53       0.007584   0.008719  -0.000000  -0.020284  -0.008304   0.068564
     54       0.000000   0.000000   0.012340  -0.000001  -0.000000   0.000003
     55       0.023745   0.027861  -0.000001  -0.048550  -0.024927   0.173240
     56       0.009720   0.011406  -0.000000  -0.024927   0.002135   0.070921
     57       0.025728   0.030562  -0.000000  -0.020550  -0.008413   0.171757
     58       0.000001   0.000001   0.022792  -0.000001  -0.000000   0.000005
     59       0.045720   0.054637  -0.000001  -0.013233  -0.014748   0.283991
     60       0.018717   0.022367  -0.000000  -0.014748   0.016754   0.116260
     61      -0.000070  -0.000034   0.000000   0.001176   0.000481  -0.007956
     62       0.000000   0.000000   0.000239  -0.000000  -0.000000   0.000000
     63       0.000000   0.000000   0.000098  -0.000000  -0.000000   0.000000
     64       0.000087   0.000042  -0.000000  -0.001383  -0.000762   0.009825
     65       0.000086   0.000042  -0.000000  -0.001498  -0.000414   0.009664
     66       0.000001   0.000000  -0.000000  -0.000036   0.000022   0.002048
     67       0.001616   0.001618  -0.000002  -0.008997   0.005507   0.033308
     68       0.021588   0.025485  -0.000006  -0.032586   0.019946   0.152715
     69       0.000000   0.000000   0.000000   0.000000   0.000000   0.000000
     70       0.000001   0.000001  -0.000000  -0.000017  -0.000004   0.000228
     71       0.001702   0.001936  -0.000000  -0.004960  -0.001249   0.017454
     72       0.000000  -0.000000   0.000000  -0.000000  -0.000000   0.000121
     73       0.000150   0.000129   0.000000  -0.000971  -0.001013   0.006675
     74       0.009509   0.011096   0.000001  -0.014505  -0.015134   0.075856
     75       0.010268   0.009055   0.000025   0.049042   0.083515   0.176433
     76       0.070492   0.084307   0.000044   0.086642   0.147547   0.411541
     77       0.077896   0.093563   0.000017   0.033862   0.057664   0.456233
     78       0.000092   0.000001  -0.000000   0.001776  -0.003185   0.022842
     79       0.000037  -0.000002  -0.000000   0.001216  -0.002180   0.023213
     80       0.000000   0.000000   0.003651   0.000003  -0.000004   0.000009
     81      -0.000731  -0.000115   0.000003  -0.005286   0.016022  -0.031837
     82       0.001311   0.000206  -0.000004   0.016022  -0.025078   0.057084
     83       0.011057   0.010392  -0.000012   0.044385  -0.079582   0.175833
     84       0.000005   0.000005   0.041654   0.000017  -0.000030   0.000037
     85      -0.017400  -0.018780   0.000017  -0.017730   0.106475  -0.130415
     86       0.031198   0.033672  -0.000030   0.106475  -0.149255   0.233832
     87       0.063997   0.076484  -0.000019   0.067527  -0.121075   0.383496
     88       0.000019   0.000023   0.119287   0.000018  -0.000033   0.000080
     89      -0.066926  -0.082417   0.000018   0.053681   0.117632  -0.284020
     90       0.119997   0.147772  -0.000033   0.117632  -0.091626   0.509244
     91       0.068145   0.081654  -0.000007   0.026082  -0.046764   0.410601
     92       0.000012   0.000015   0.080133   0.000005  -0.000008   0.000064
     93      -0.043154  -0.052278   0.000005   0.064041   0.028854  -0.227518
     94       0.077375   0.093734  -0.000008   0.028854   0.028399   0.407937
     95      -0.014757  -0.015572   0.000028  -0.047816   0.085733  -0.076514
     96      -0.000003  -0.000004  -0.030682  -0.000006   0.000027  -0.000018
     97       0.000006   0.000006   0.055013   0.000027  -0.000040   0.000032
     98      -0.013431  -0.014173   0.000017  -0.090325   0.051927  -0.069640
     99      -0.021746  -0.022947   0.000027  -0.041555   0.142463  -0.112753
                  6          7          8          9         10         11    
      0       0.000000   0.000000   0.000000   0.153761  -0.000000  -0.000000
      1      -0.000000  -0.000000  -0.000000   0.187145   0.000000   0.000000
      2       0.629120   0.000000   0.000000  -0.000000   0.220230   0.000000
      3       0.000000   0.629120   0.000000   0.000000   0.000000   0.220230
      4       0.000000   0.000000   0.629120  -0.000000   0.000000   0.000000
      5       0.000000   0.000000   0.000000   0.774697  -0.000000  -0.000000
      6       1.000000   0.000000   0.000000  -0.000000   0.653461   0.000000
      7       0.000000   1.000000   0.000000  -0.000000   0.000000   0.653461
      8       0.000000   0.000000   1.000000  -0.000000   0.000000   0.000000
      9      -0.000000  -0.000000  -0.000000   1.000000   0.000000   0.000000
     10       0.653461   0.000000   0.000000   0.000000   1.000000   0.000000
     11       0.000000   0.653461   0.000000   0.000000   0.000000   1.000000
     12       0.000000   0.000000   0.653461   0.000000   0.000000   0.000000
     13       0.000000   0.000000   0.000000   0.774408   0.000000   0.000000
     14       0.226365   0.000000   0.000000   0.000000   0.653055   0.000000
     15       0.000000   0.226365   0.000000   0.000000   0.000000   0.653055
     16       0.000000   0.000000   0.226365   0.000000   0.000000   0.000000
     17       0.000000   0.000000   0.000000   0.000000   0.000000   0.000000
     18       0.000000   0.000000   0.000000   0.000000   0.000000   0.000000
     19       0.000000   0.000000   0.000000   0.000000   0.000000   0.000000
     20       0.000000   0.000000   0.000000   0.000000   0.000000   0.000000
     21       0.000000   0.000000   0.000000   0.000000   0.000000   0.000000
     22      -0.000005  -0.040332   0.003764   0.051477  -0.000012  -0.104720
     23      -0.000005  -0.046079   0.004300   0.061439  -0.000014  -0.127300
     24       0.034467  -0.000022   0.000002   0.000009   0.077292  -0.000018
     25      -0.000022  -0.163209   0.018447   0.082383  -0.000018  -0.083148
     26       0.000002   0.018447   0.032746  -0.007688   0.000002   0.014972
     27      -0.000033  -0.289707   0.027035   0.321087  -0.000060  -0.526063
     28       0.149153  -0.000064   0.000006   0.000033   0.270839  -0.000054
     29      -0.000064  -0.413558   0.052512   0.288681  -0.000054  -0.202130
     30       0.000006   0.052512   0.144253  -0.026939   0.000005   0.044137
     31      -0.000033  -0.288681   0.026939   0.563836  -0.000068  -0.600979
     32       0.270839  -0.000054   0.000005   0.000068   0.563836  -0.000073
     33      -0.000054  -0.202130   0.044137   0.600979  -0.000073  -0.076733
     34       0.000005   0.044137   0.266720  -0.056083   0.000007   0.059777
     35      -0.000011  -0.096472   0.009003   0.594108  -0.000033  -0.292907
     36       0.165012  -0.000012   0.000001   0.000061   0.501009  -0.000030
     37      -0.000012   0.061581   0.009652   0.534013  -0.000030   0.237729
     38       0.000001   0.009652   0.164111  -0.049833   0.000003   0.024569
     39       0.000060   0.145960  -0.013621  -0.055338   0.000034  -0.007231
     40       0.220362  -0.000082   0.000010   0.000022   0.178295  -0.000017
     41      -0.020564   0.000010   0.000024  -0.000002  -0.016638   0.000003
     42      -0.000053  -0.244641   0.063957   0.094193  -0.000019   0.015386
     43       0.000010   0.066985   0.212192  -0.017734   0.000003   0.014034
     44      -0.000000  -0.000232  -0.000095   0.007584  -0.000000  -0.023745
     45      -0.000000  -0.000161  -0.000066   0.008719  -0.000000  -0.027861
     46       0.000221  -0.000000  -0.000000   0.000000   0.012340  -0.000001
     47      -0.000000  -0.002774  -0.001226   0.020284  -0.000001  -0.048550
     48      -0.000000  -0.001226  -0.000281   0.008304  -0.000000  -0.024927
     49      -0.000000  -0.015904  -0.006511   0.068564  -0.000003  -0.173240
     50       0.005309  -0.000001  -0.000000   0.000002   0.057834  -0.000004
     51      -0.000001  -0.042330  -0.019502   0.095067  -0.000004  -0.182371
     52      -0.000000  -0.019502  -0.002675   0.038918  -0.000002  -0.098335
     53      -0.000002  -0.095067  -0.038918   0.206505  -0.000006  -0.339449
     54       0.057834  -0.000004  -0.000002   0.000006   0.206505  -0.000010
     55      -0.000004  -0.182371  -0.098335   0.339449  -0.000010  -0.351477
     56      -0.000002  -0.098335   0.017578   0.138963  -0.000004  -0.228425
     57      -0.000001  -0.085480  -0.034994   0.373328  -0.000005  -0.283853
     58       0.094807  -0.000002  -0.000001   0.000009   0.314826  -0.000007
     59      -0.000002  -0.046529  -0.057860   0.517506  -0.000007  -0.078651
     60      -0.000001  -0.057860   0.071120   0.211856  -0.000003  -0.161081
     61       0.000001   0.022346   0.009148  -0.029853   0.000002   0.048518
     62       0.007881  -0.000001  -0.000001   0.000002   0.053883  -0.000003
     63       0.003226  -0.000001  -0.000000   0.000001   0.022058  -0.000002
     64      -0.000001  -0.025331  -0.016822   0.036864  -0.000002  -0.044443
     65      -0.000001  -0.029441  -0.005492   0.036259  -0.000002  -0.074654
     66      -0.000001  -0.007174   0.004391   0.048472  -0.000020  -0.117400
     67      -0.000011  -0.066211   0.040528   0.155327  -0.000049  -0.290875
     68      -0.000022  -0.132150   0.080890   0.344241  -0.000066  -0.385880
     69      -0.000000  -0.000002  -0.000001   0.001737  -0.000000  -0.007518
     70      -0.000000  -0.000812  -0.000204   0.011819  -0.000001  -0.039609
     71      -0.000001  -0.027029  -0.006803   0.073663  -0.000004  -0.147768
     72       0.000000  -0.000417  -0.000435   0.016553   0.000003  -0.039501
     73       0.000001  -0.013081  -0.013648   0.067665   0.000011  -0.124917
     74       0.000006  -0.064711  -0.067516   0.209335   0.000020  -0.231329
     75       0.000096   0.187808   0.319827   0.260542   0.000096   0.189236
     76       0.000125   0.245084   0.417365   0.569765   0.000163   0.319649
     77       0.000060   0.118275   0.201415   0.749439   0.000128   0.251677
     78      -0.000009   0.032714  -0.058655   0.050300  -0.000012   0.041894
     79      -0.000010   0.034499  -0.061857   0.053142  -0.000013   0.044764
     80       0.040895   0.000012  -0.000021   0.000006   0.051047   0.000005
     81       0.000012  -0.001797   0.076545  -0.021809   0.000005   0.033277
     82      -0.000021   0.076545  -0.096350   0.039102  -0.000009   0.031862
     83      -0.000050   0.178497  -0.320043   0.295954  -0.000061   0.217856
     84       0.167515   0.000037  -0.000067   0.000024   0.204452   0.000018
     85       0.000037   0.035125   0.237374  -0.087346   0.000018   0.140155
     86      -0.000067   0.237374  -0.258095   0.156611  -0.000032   0.115283
     87      -0.000058   0.206519  -0.370286   0.577662  -0.000088   0.314470
     88       0.364817   0.000043  -0.000077   0.000066   0.555514   0.000036
     89       0.000043   0.211868   0.274236  -0.237328   0.000036   0.426317
     90      -0.000077   0.274236  -0.126885   0.425526  -0.000065   0.231650
     91      -0.000027   0.095118  -0.170546   0.713666  -0.000063   0.223947
     92       0.292242   0.000015  -0.000026   0.000082   0.688055   0.000026
     93       0.000015   0.239536   0.094501  -0.293952   0.000026   0.595813
     94      -0.000026   0.094501   0.122802   0.527052  -0.000046   0.165388
     95       0.000050  -0.040060   0.071826  -0.018979   0.000016   0.006506
     96      -0.080775   0.000003   0.000036  -0.000004  -0.036513   0.000007
     97       0.144829   0.000036  -0.000042   0.000008   0.065467   0.000006
     98       0.000022  -0.159682  -0.003350  -0.017274   0.000004  -0.049778
     99       0.000036   0.017072   0.148292  -0.027969   0.000006   0.043989
                 12         13         14         15         16         17    
      0      -0.000000   0.065562   0.000000   0.000000   0.000000   0.000000
      1       0.000000   0.078316  -0.000000   0.000000  -0.000000   0.000000
      2       0.000000  -0.000000   0.057350   0.000000   0.000000   0.000000
      3       0.000000   0.000000   0.000000   0.057350   0.000000  -0.000000
      4       0.220230  -0.000000   0.000000   0.000000   0.057350   0.000000
      5      -0.000000   0.410096   0.000000   0.000000   0.000000   0.000000
      6       0.000000   0.000000   0.226365   0.000000   0.000000   0.000000
      7       0.000000   0.000000   0.000000   0.226365   0.000000   0.000000
      8       0.653461   0.000000   0.000000   0.000000   0.226365   0.000000
      9       0.000000   0.774408   0.000000   0.000000   0.000000   0.000000
     10       0.000000   0.000000   0.653055   0.000000   0.000000   0.000000
     11       0.000000   0.000000   0.000000   0.653055   0.000000   0.000000
     12       1.000000   0.000000   0.000000   0.000000   0.653055  -0.000000
     13       0.000000   1.000000   0.000000  -0.000000   0.000000   0.000000
     14       0.000000   0.000000   1.000000   0.000000   0.000000   0.000000
     15       0.000000  -0.000000   0.000000   1.000000   0.000000  -0.000000
     16       0.653055   0.000000   0.000000   0.000000   1.000000   0.000000
     17      -0.000000   0.000000   0.000000  -0.000000   0.000000   1.000000
     18       0.000000   0.000000   0.000000   0.000000   0.000000   0.000000
     19       0.000000   0.000000   0.000000   0.000000   0.000000   0.000000
     20      -0.000000   0.000000   0.000000   0.000000   0.000000   0.000000
     21       0.000000   0.000000   0.000000   0.000000   0.000000   0.000000
     22       0.009772   0.046675  -0.000006  -0.053787   0.005019  -0.023728
     23       0.011879   0.055642  -0.000007  -0.064501   0.006019  -0.027507
     24       0.000002   0.000003   0.041017  -0.000003   0.000000  -0.000025
     25       0.014972   0.023980  -0.000003   0.013757   0.002544  -0.098986
     26       0.075894  -0.002238   0.000000   0.002544   0.040779   0.009237
     27       0.049092   0.298945  -0.000036  -0.320510   0.029910  -0.124634
     28       0.000005   0.000011   0.165012  -0.000012   0.000001  -0.000060
     29       0.044137   0.096472  -0.000012   0.061581   0.009652  -0.145960
     30       0.266720  -0.009003   0.000001   0.009652   0.164111   0.013621
     31       0.056083   0.594108  -0.000061  -0.534013   0.049833  -0.055338
     32       0.000007   0.000033   0.501009  -0.000030   0.000003  -0.000034
     33       0.059777   0.292907  -0.000030   0.237729   0.024569   0.007231
     34       0.558257  -0.027334   0.000003   0.024569   0.498716  -0.000675
     35       0.027334   0.841653  -0.000056  -0.492060   0.045918  -0.006129
     36       0.000003   0.000056   0.841653  -0.000033   0.000003  -0.000005
     37       0.024569   0.492060  -0.000033   0.553977   0.026846   0.014088
     38       0.498716  -0.045918   0.000003   0.026846   0.839148  -0.001315
     39       0.000675  -0.006129   0.000005  -0.014088   0.001315   0.117530
     40       0.000003   0.000002   0.036002   0.000001   0.000000  -0.000094
     41       0.000020  -0.000000  -0.003360   0.000000   0.000004   0.000009
     42       0.031841   0.010432  -0.000001   0.024601   0.004424  -0.055182
     43       0.175433  -0.001964   0.000000  -0.001213   0.035802   0.010390
     44      -0.009720   0.025728  -0.000001  -0.045720  -0.018717  -0.000070
     45      -0.011406   0.030562  -0.000001  -0.054637  -0.022367  -0.000034
     46      -0.000000   0.000000   0.022792  -0.000001  -0.000000  -0.000000
     47      -0.024927   0.020550  -0.000001  -0.013233  -0.014748  -0.001176
     48       0.002135   0.008413  -0.000000  -0.014748   0.016754  -0.000481
     49      -0.070921   0.171757  -0.000005  -0.283991  -0.116260  -0.007956
     50      -0.000002   0.000001   0.094807  -0.000002  -0.000001  -0.000001
     51      -0.098335   0.085480  -0.000002  -0.046529  -0.057860  -0.022346
     52       0.017578   0.034994  -0.000001  -0.057860   0.071120  -0.009148
     53      -0.138963   0.373328  -0.000009  -0.517506  -0.211856  -0.029853
     54      -0.000004   0.000005   0.314826  -0.000007  -0.000003  -0.000002
     55      -0.228425   0.283853  -0.000007  -0.078651  -0.161081  -0.048518
     56       0.112992   0.116203  -0.000003  -0.161081   0.248883  -0.019862
     57      -0.116203   0.622147  -0.000010  -0.560941  -0.229637  -0.009591
     58      -0.000003   0.000010   0.622147  -0.000009  -0.000004  -0.000001
     59      -0.161081   0.560941  -0.000009   0.116391  -0.207045   0.002057
     60       0.248883   0.229637  -0.000004  -0.207045   0.537387   0.000842
     61       0.019862  -0.009591   0.000001  -0.002057  -0.000842   0.013386
     62      -0.000002   0.000000   0.031561  -0.000000  -0.000000  -0.000001
     63       0.000000   0.000000   0.012920  -0.000000   0.000000  -0.000000
     64      -0.062311   0.011843  -0.000000   0.011601  -0.021091  -0.015130
     65       0.014290   0.011649  -0.000000  -0.006712   0.023524  -0.014882
     66       0.071861   0.101357  -0.000025  -0.145445   0.089028  -0.003726
     67       0.178046   0.266178  -0.000059  -0.348693   0.213437  -0.033102
     68       0.236199   0.514540  -0.000091  -0.536105   0.328153  -0.031325
     69      -0.001892   0.034331  -0.000003  -0.088157  -0.022189  -0.000000
     70      -0.009970   0.099071  -0.000007  -0.232252  -0.058458  -0.000340
     71      -0.037193   0.234441  -0.000013  -0.437127  -0.110025  -0.008104
     72      -0.041213   0.071478   0.000009  -0.101114  -0.105497  -0.000190
     73      -0.130333   0.193509   0.000021  -0.249903  -0.260737  -0.008328
     74      -0.241357   0.399288   0.000035  -0.410125  -0.427905  -0.022316
     75       0.322258   0.175024   0.000038   0.075245   0.128137  -0.198780
     76       0.544345   0.438279   0.000088   0.172004   0.292914  -0.134224
     77       0.428592   0.765025   0.000122   0.238794   0.406654  -0.024937
     78      -0.075115   0.035311  -0.000005   0.016420  -0.029440  -0.044211
     79      -0.080261   0.037150  -0.000005   0.017336  -0.031084  -0.047547
     80      -0.000009   0.000001   0.020477   0.000001  -0.000001  -0.000034
     81       0.031862  -0.004798   0.000001   0.018261   0.003974   0.043927
     82      -0.006081   0.008604  -0.000001   0.003974   0.013352  -0.078760
     83      -0.390613   0.217913  -0.000027   0.097416  -0.174667  -0.184137
     84      -0.000032   0.000006   0.091423   0.000003  -0.000005  -0.000091
     85       0.115283  -0.021423   0.000003   0.081846   0.017172   0.078383
     86      -0.002250   0.038412  -0.000005   0.017172   0.060634  -0.140540
     87      -0.563842   0.487667  -0.000055   0.195118  -0.349844  -0.106377
     88      -0.000065   0.000023   0.344677   0.000009  -0.000016  -0.000074
     89       0.231650  -0.080769   0.000009   0.312361   0.057942  -0.003651
     90       0.140169   0.144818  -0.000016   0.057942   0.240788   0.006546
     91      -0.401535   0.792964  -0.000069   0.244763  -0.438857  -0.018990
     92      -0.000046   0.000049   0.752008   0.000015  -0.000027  -0.000019
     93       0.165388  -0.176219   0.000015   0.697614   0.097527  -0.016794
     94       0.391515   0.315960  -0.000027   0.097527   0.577143   0.030111
     95      -0.011665  -0.001440   0.000002   0.002264  -0.004059   0.100612
     96       0.000006  -0.000000  -0.005051   0.000001   0.000000   0.000047
     97      -0.000001   0.000001   0.009057   0.000000   0.000001  -0.000085
     98      -0.041682  -0.001311   0.000000  -0.005646  -0.007992   0.013272
     99       0.001996  -0.002122   0.000000   0.008095  -0.003326   0.021488
                 18         19         20         21         22         23    
      0       0.000000   0.000000   0.000000   0.000000   0.000037   0.000004
      1      -0.000000   0.000000   0.000000   0.000000   0.000004  -0.000001
      2       0.000000  -0.000000   0.000000   0.000000  -0.000000  -0.000000
      3       0.000000   0.000000   0.000000  -0.000000  -0.001184  -0.000428
      4       0.000000   0.000000   0.000000   0.000000   0.000110   0.000040
      5       0.000000   0.000000   0.000000   0.000000   0.012189   0.012997
      6       0.000000   0.000000   0.000000   0.000000  -0.000005  -0.000005
      7       0.000000   0.000000   0.000000   0.000000  -0.040332  -0.046079
      8       0.000000   0.000000   0.000000   0.000000   0.003764   0.004300
      9       0.000000   0.000000   0.000000   0.000000   0.051477   0.061439
     10       0.000000   0.000000   0.000000   0.000000  -0.000012  -0.000014
     11       0.000000   0.000000   0.000000   0.000000  -0.104720  -0.127300
     12       0.000000   0.000000  -0.000000   0.000000   0.009772   0.011879
     13       0.000000   0.000000   0.000000   0.000000   0.046675   0.055642
     14       0.000000   0.000000   0.000000   0.000000  -0.000006  -0.000007
     15       0.000000   0.000000   0.000000   0.000000  -0.053787  -0.064501
     16       0.000000   0.000000   0.000000   0.000000   0.005019   0.006019
     17       0.000000   0.000000   0.000000   0.000000  -0.023728  -0.027507
     18       1.000000   0.000000   0.000000   0.000000   0.000009   0.000011
     19       0.000000   1.000000   0.000000   0.000000  -0.000001  -0.000001
     20       0.000000   0.000000   1.000000   0.000000   0.040388   0.046820
     21       0.000000   0.000000   0.000000   1.000000  -0.007604  -0.008815
     22       0.000009  -0.000001   0.040388  -0.007604   1.000000   0.878444
     23       0.000011  -0.000001   0.046820  -0.008815   0.878444   1.000000
     24      -0.068532   0.006395   0.000027  -0.000005   0.000000  -0.000000
     25       0.000046  -0.000005   0.167305  -0.038007   0.000000  -0.000000
     26      -0.000005  -0.000007  -0.028403  -0.064389   0.000000   0.000000
     27       0.000049  -0.000005   0.212146  -0.039942   0.329179   0.418800
     28      -0.220362   0.020564   0.000053  -0.000010   0.000000   0.000000
     29       0.000082  -0.000010   0.244641  -0.066985   0.000000   0.000000
     30      -0.000010  -0.000024  -0.063957  -0.212192   0.000000  -0.000000
     31       0.000022  -0.000002   0.094193  -0.017734   0.153761   0.187145
     32      -0.178295   0.016638   0.000019  -0.000003   0.000000  -0.000000
     33       0.000017  -0.000003  -0.015386  -0.014034   0.000000   0.000000
     34      -0.000003  -0.000020  -0.031841  -0.175433  -0.000000   0.000000
     35       0.000002  -0.000000   0.010432  -0.001964   0.065562   0.078316
     36      -0.036002   0.003360   0.000001  -0.000000  -0.000000  -0.000000
     37      -0.000001  -0.000000  -0.024601   0.001213  -0.000000   0.000000
     38      -0.000000  -0.000004  -0.004424  -0.035802  -0.000000  -0.000000
     39      -0.000094   0.000009  -0.055182   0.010390   0.000000   0.000000
     40      -0.330660   0.038799   0.000067  -0.000017   0.000000   0.000000
     41       0.038799   0.081490  -0.000015  -0.000045  -0.000000   0.000000
     42       0.000067  -0.000015   0.164681  -0.093943   0.000000   0.000000
     43      -0.000017  -0.000045  -0.093943  -0.316593   0.000000   0.000000
     44       0.000000   0.000000   0.000087   0.000086   0.000147   0.000033
     45       0.000000   0.000000   0.000042   0.000042   0.000033  -0.000003
     46      -0.000239  -0.000098   0.000000   0.000000  -0.000000  -0.000000
     47       0.000000   0.000000   0.001383   0.001498   0.002245   0.001255
     48       0.000000   0.000000   0.000762   0.000414   0.003001   0.001677
     49       0.000000   0.000000   0.009825   0.009664   0.022458   0.024966
     50      -0.007881  -0.003226   0.000001   0.000001  -0.000006  -0.000008
     51       0.000001   0.000001   0.025331   0.029441   0.040539   0.047987
     52       0.000001   0.000000   0.016822   0.005492   0.054182   0.064137
     53       0.000002   0.000001   0.036864   0.036259   0.063226   0.075748
     54      -0.053883  -0.022058   0.000002   0.000002  -0.000011  -0.000014
     55       0.000003   0.000002   0.044443   0.074654   0.069754   0.085096
     56       0.000002  -0.000000   0.062311  -0.014290   0.093228   0.113733
     57       0.000000   0.000000   0.011843   0.011649   0.049753   0.059334
     58      -0.031561  -0.012920   0.000000   0.000000  -0.000005  -0.000006
     59       0.000000   0.000000  -0.011601   0.006712   0.031086   0.037293
     60       0.000000  -0.000000   0.021091  -0.023524   0.041548   0.049843
     61      -0.000001  -0.000000  -0.015130  -0.014882  -0.041707  -0.050908
     62      -0.012032  -0.005389   0.000001   0.000001  -0.000008  -0.000010
     63      -0.005389  -0.001073   0.000001   0.000000  -0.000011  -0.000014
     64       0.000001   0.000001   0.012258   0.026061  -0.020386  -0.024884
     65       0.000001   0.000000   0.026061   0.011396   0.069302   0.084591
     66       0.000002  -0.000001   0.002935  -0.005747   0.011866   0.010745
     67       0.000014  -0.000009   0.026081  -0.051059   0.074371   0.089124
     68       0.000013  -0.000008   0.024680  -0.048317   0.079314   0.095289
     69       0.000000   0.000000   0.000000   0.000000   0.000002   0.000000
     70       0.000000   0.000000   0.000519   0.000279   0.002285   0.002332
     71       0.000001   0.000000   0.012364   0.006645   0.024308   0.028743
     72      -0.000000  -0.000000  -0.000014   0.000328   0.000002   0.000000
     73      -0.000001  -0.000001  -0.000612   0.014412   0.002512   0.002577
     74      -0.000003  -0.000003  -0.001639   0.038617   0.025110   0.029704
     75       0.000090   0.000153  -0.167736   0.300675   0.000001   0.000000
     76       0.000061   0.000104  -0.113261   0.203027   0.001638   0.001641
     77       0.000011   0.000019  -0.021043   0.037720   0.021688   0.025604
     78      -0.000010   0.000018  -0.040239  -0.065151   0.000000   0.000000
     79      -0.000011   0.000020  -0.043276  -0.070068   0.000000   0.000000
     80       0.043758  -0.078458  -0.000018  -0.000029  -0.000000   0.000000
     81       0.000004  -0.000029   0.106733   0.023504  -0.000000   0.000000
     82      -0.000029   0.000039  -0.034455  -0.139058   0.000000  -0.000000
     83      -0.000042   0.000076  -0.167594  -0.271351   0.000001   0.000000
     84       0.142029  -0.254656  -0.000041  -0.000066  -0.000000  -0.000000
     85      -0.000003  -0.000066   0.288004  -0.018309  -0.000004  -0.000000
     86      -0.000066   0.000079  -0.007076  -0.281739   0.000002   0.000000
     87      -0.000024   0.000044  -0.096820  -0.156761   0.001816   0.001907
     88       0.154446  -0.276920  -0.000022  -0.000035  -0.000000  -0.000000
     89      -0.000024  -0.000035   0.232282  -0.150897  -0.006562  -0.007181
     90      -0.000035   0.000020   0.137361  -0.071512   0.003804   0.004163
     91      -0.000004   0.000008  -0.017284  -0.027984   0.019581   0.023136
     92       0.047952  -0.085977  -0.000003  -0.000004  -0.000000  -0.000000
     93      -0.000011  -0.000004   0.057865  -0.069928  -0.043317  -0.051770
     94      -0.000004  -0.000005   0.068204   0.019175   0.025108   0.030008
     95       0.000047  -0.000085   0.013272   0.021488  -0.000000   0.000000
     96      -0.004931   0.163094   0.000055   0.000003   0.000000  -0.000000
     97       0.163094  -0.206395  -0.000008  -0.000061  -0.000000   0.000000
     98       0.000055  -0.000008  -0.179411   0.190964   0.000000  -0.000000
     99       0.000003  -0.000061   0.190964   0.011831  -0.000001   0.000000
                 24         25         26         27         28         29    
      0       0.000000   0.001184  -0.000110   0.012189   0.000005   0.040332
      1       0.000000   0.000428  -0.000040   0.012997   0.000005   0.046079
      2       0.002170  -0.000003   0.000000  -0.000008   0.034467  -0.000022
      3      -0.000003  -0.022779   0.002328  -0.066948  -0.000022  -0.163209
      4       0.000000   0.002328   0.001953   0.006247   0.000002   0.018447
      5       0.000008   0.066948  -0.006247   0.149153   0.000033   0.289707
      6       0.034467  -0.000022   0.000002  -0.000033   0.149153  -0.000064
      7      -0.000022  -0.163209   0.018447  -0.289707  -0.000064  -0.413558
      8       0.000002   0.018447   0.032746   0.027035   0.000006   0.052512
      9       0.000009   0.082383  -0.007688   0.321087   0.000033   0.288681
     10       0.077292  -0.000018   0.000002  -0.000060   0.270839  -0.000054
     11      -0.000018  -0.083148   0.014972  -0.526063  -0.000054  -0.202130
     12       0.000002   0.014972   0.075894   0.049092   0.000005   0.044137
     13       0.000003   0.023980  -0.002238   0.298945   0.000011   0.096472
     14       0.041017  -0.000003   0.000000  -0.000036   0.165012  -0.000012
     15      -0.000003   0.013757   0.002544  -0.320510  -0.000012   0.061581
     16       0.000000   0.002544   0.040779   0.029910   0.000001   0.009652
     17      -0.000025  -0.098986   0.009237  -0.124634  -0.000060  -0.145960
     18      -0.068532   0.000046  -0.000005   0.000049  -0.220362   0.000082
     19       0.006395  -0.000005  -0.000007  -0.000005   0.020564  -0.000010
     20       0.000027   0.167305  -0.028403   0.212146   0.000053   0.244641
     21      -0.000005  -0.038007  -0.064389  -0.039942  -0.000010  -0.066985
     22       0.000000   0.000000   0.000000   0.329179   0.000000   0.000000
     23      -0.000000  -0.000000   0.000000   0.418800   0.000000   0.000000
     24       1.000000   0.000000  -0.000000  -0.000000   0.629120   0.000000
     25       0.000000   1.000000  -0.000000  -0.000000   0.000000   0.629120
     26      -0.000000  -0.000000   1.000000  -0.000000  -0.000000  -0.000000
     27      -0.000000  -0.000000  -0.000000   1.000000   0.000000  -0.000000
     28       0.629120   0.000000  -0.000000   0.000000   1.000000   0.000000
     29       0.000000   0.629120  -0.000000  -0.000000   0.000000   1.000000
     30      -0.000000  -0.000000   0.629120   0.000000   0.000000  -0.000000
     31       0.000000   0.000000  -0.000000   0.774697   0.000000   0.000000
     32       0.220230   0.000000  -0.000000   0.000000   0.653461   0.000000
     33       0.000000   0.220230   0.000000   0.000000   0.000000   0.653461
     34      -0.000000   0.000000   0.220230   0.000000   0.000000   0.000000
     35       0.000000   0.000000  -0.000000   0.410096   0.000000  -0.000000
     36       0.057350   0.000000   0.000000   0.000000   0.226365   0.000000
     37       0.000000   0.057350   0.000000  -0.000000   0.000000   0.226365
     38       0.000000   0.000000   0.057350   0.000000   0.000000  -0.000000
     39       0.000000  -0.000000   0.000000   0.000000   0.000000   0.000000
     40       0.000000   0.000000   0.000000   0.000000   0.000000   0.000000
     41       0.000000   0.000000   0.000000   0.000000   0.000000   0.000000
     42       0.000000   0.000000   0.000000   0.000000   0.000000   0.000000
     43       0.000000   0.000000   0.000000   0.000000   0.000000   0.000000
     44       0.000000  -0.002245  -0.003001   0.022458   0.000006  -0.040539
     45       0.000000  -0.001255  -0.001677   0.024966   0.000008  -0.047987
     46       0.006477   0.000004   0.000005  -0.000010   0.059387   0.000016
     47       0.000004  -0.015568  -0.029463   0.062542   0.000016  -0.040872
     48       0.000005  -0.029463  -0.032902   0.083590   0.000021  -0.134000
     49       0.000010  -0.062542  -0.083590   0.213287   0.000036  -0.224618
     50       0.059387   0.000016   0.000021  -0.000036   0.213287   0.000038
     51       0.000016  -0.040872  -0.134000   0.224618   0.000038  -0.023264
     52       0.000021  -0.134000  -0.119709   0.300209   0.000050  -0.316158
     53       0.000009  -0.054383  -0.072684   0.378899   0.000029  -0.184702
     54       0.094102   0.000009   0.000012  -0.000054   0.319603   0.000026
     55       0.000009   0.036676  -0.076752   0.336582   0.000026   0.155529
     56       0.000012  -0.076752  -0.008480   0.449853   0.000035  -0.219290
     57       0.000002  -0.013847  -0.018507   0.317247   0.000009  -0.055509
     58       0.043684   0.000001   0.000002  -0.000029   0.175114   0.000005
     59       0.000001   0.035149  -0.011407   0.184418   0.000005   0.142847
     60       0.000002  -0.011407   0.028438   0.246480   0.000007  -0.043127
     61      -0.000032   0.076767   0.102601  -0.151530  -0.000062   0.076803
     62       0.071826   0.000012   0.000031  -0.000030   0.178887   0.000007
     63       0.095998   0.000031   0.000030  -0.000040   0.239088   0.000048
     64      -0.000009   0.129620  -0.018756  -0.074068  -0.000014   0.266911
     65       0.000031  -0.100468  -0.190757   0.251790   0.000048  -0.060147
     66      -0.000015  -0.039455   0.099692   0.187937  -0.000054  -0.142412
     67      -0.000024  -0.064746   0.163596   0.426342  -0.000068  -0.180681
     68      -0.000009  -0.024522   0.061960   0.463304  -0.000032  -0.085472
     69       0.000000  -0.000078  -0.000041   0.003085   0.000000  -0.010847
     70       0.000000  -0.012429  -0.006493   0.042027   0.000003  -0.083772
     71       0.000001  -0.036658  -0.019151   0.168982   0.000005  -0.146627
     72       0.000000  -0.000019  -0.000106   0.003452   0.000002  -0.002409
     73       0.000002  -0.002693  -0.014911   0.044788   0.000015  -0.017719
     74       0.000007  -0.007508  -0.041574   0.173727   0.000026  -0.029919
     75       0.000000   0.000040   0.000016   0.002081   0.000002   0.007919
     76       0.000002   0.009897   0.003979   0.033609   0.000016   0.072583
     77       0.000008   0.035559   0.014295   0.153315   0.000032   0.144132
     78       0.000000   0.000000  -0.000000   0.000028   0.000000   0.000139
     79      -0.000000  -0.000000   0.000000   0.000021   0.000000   0.000110
     80       0.000000  -0.000000   0.000000  -0.000000   0.000075  -0.000000
     81      -0.000000  -0.000000   0.000000  -0.000203  -0.000000  -0.000874
     82       0.000000   0.000000  -0.000000   0.000118   0.000000   0.000550
     83       0.000000   0.000031  -0.000018   0.001472   0.000000   0.005223
     84       0.000008  -0.000000   0.000000  -0.000000   0.001403  -0.000000
     85      -0.000000  -0.000133   0.000082  -0.003816  -0.000000  -0.012136
     86       0.000000   0.000082  -0.000039   0.002212   0.000000   0.007848
     87       0.000000   0.008499  -0.004926   0.030330   0.000000   0.057084
     88       0.004296  -0.000000   0.000000  -0.000000   0.028853  -0.000000
     89      -0.000000  -0.024489   0.016685  -0.078506  -0.000000  -0.118899
     90       0.000000   0.016685  -0.005376   0.045506   0.000000   0.085644
     91       0.000000   0.027039  -0.015673   0.137853   0.000000   0.111608
     92       0.023770  -0.000000   0.000000  -0.000000   0.098116  -0.000000
     93      -0.000000  -0.034529   0.033793  -0.266960  -0.000000  -0.118020
     94       0.000000   0.033793   0.004182   0.154743   0.000000   0.125283
     95      -0.000000  -0.000023   0.000014  -0.001423  -0.000000  -0.004852
     96      -0.000003   0.000000  -0.000000   0.000000  -0.001356   0.000000
     97       0.000002  -0.000000   0.000000  -0.000000   0.000786  -0.000000
     98       0.000000   0.000019  -0.000014   0.001225   0.000000   0.003495
     99      -0.000000  -0.000036   0.000019  -0.002139  -0.000000  -0.007683
                 30         31         32         33         34         35    
      0      -0.003764   0.051477   0.000012   0.104720  -0.009772   0.046675
      1      -0.004300   0.061439   0.000014   0.127300  -0.011879   0.055642
      2       0.000002  -0.000009   0.077292  -0.000018   0.000002  -0.000003
      3       0.018447  -0.082383  -0.000018  -0.083148   0.014972  -0.023980
      4       0.032746   0.007688   0.000002   0.014972   0.075894   0.002238
      5      -0.027035   0.321087   0.000060   0.526063  -0.049092   0.298945
      6       0.000006  -0.000033   0.270839  -0.000054   0.000005  -0.000011
      7       0.052512  -0.288681  -0.000054  -0.202130   0.044137  -0.096472
      8       0.144253   0.026939   0.000005   0.044137   0.266720   0.009003
      9      -0.026939   0.563836   0.000068   0.600979  -0.056083   0.594108
     10       0.000005  -0.000068   0.563836  -0.000073   0.000007  -0.000033
     11       0.044137  -0.600979  -0.000073  -0.076733   0.059777  -0.292907
     12       0.266720   0.056083   0.000007   0.059777   0.558257   0.027334
     13      -0.009003   0.594108   0.000033   0.292907  -0.027334   0.841653
     14       0.000001  -0.000061   0.501009  -0.000030   0.000003  -0.000056
     15       0.009652  -0.534013  -0.000030   0.237729   0.024569  -0.492060
     16       0.164111   0.049833   0.000003   0.024569   0.498716   0.045918
     17       0.013621  -0.055338  -0.000034   0.007231  -0.000675  -0.006129
     18      -0.000010   0.000022  -0.178295   0.000017  -0.000003   0.000002
     19      -0.000024  -0.000002   0.016638  -0.000003  -0.000020  -0.000000
     20      -0.063957   0.094193   0.000019  -0.015386  -0.031841   0.010432
     21      -0.212192  -0.017734  -0.000003  -0.014034  -0.175433  -0.001964
     22       0.000000   0.153761   0.000000   0.000000  -0.000000   0.065562
     23      -0.000000   0.187145  -0.000000   0.000000   0.000000   0.078316
     24      -0.000000   0.000000   0.220230   0.000000  -0.000000   0.000000
     25      -0.000000   0.000000   0.000000   0.220230   0.000000   0.000000
     26       0.629120  -0.000000  -0.000000   0.000000   0.220230  -0.000000
     27       0.000000   0.774697   0.000000   0.000000   0.000000   0.410096
     28       0.000000   0.000000   0.653461   0.000000   0.000000   0.000000
     29      -0.000000   0.000000   0.000000   0.653461   0.000000  -0.000000
     30       1.000000   0.000000   0.000000   0.000000   0.653461   0.000000
     31       0.000000   1.000000   0.000000   0.000000   0.000000   0.774408
     32       0.000000   0.000000   1.000000   0.000000   0.000000   0.000000
     33       0.000000   0.000000   0.000000   1.000000   0.000000   0.000000
     34       0.653461   0.000000   0.000000   0.000000   1.000000   0.000000
     35       0.000000   0.774408   0.000000   0.000000   0.000000   1.000000
     36       0.000000   0.000000   0.653055   0.000000   0.000000   0.000000
     37      -0.000000   0.000000   0.000000   0.653055   0.000000   0.000000
     38       0.226365   0.000000   0.000000   0.000000   0.653055   0.000000
     39       0.000000   0.000000   0.000000   0.000000   0.000000   0.000000
     40       0.000000   0.000000  -0.000000   0.000000   0.000000   0.000000
     41       0.000000   0.000000   0.000000   0.000000   0.000000   0.000000
     42       0.000000   0.000000   0.000000  -0.000000   0.000000   0.000000
     43       0.000000   0.000000   0.000000   0.000000  -0.000000   0.000000
     44      -0.054182   0.063226   0.000011  -0.069754  -0.093228   0.049753
     45      -0.064137   0.075748   0.000014  -0.085096  -0.113733   0.059334
     46       0.000021  -0.000009   0.094102   0.000009   0.000012  -0.000002
     47      -0.134000   0.054383   0.000009   0.036676  -0.076752   0.013847
     48      -0.119709   0.072684   0.000012  -0.076752  -0.008480   0.018507
     49      -0.300209   0.378899   0.000054  -0.336582  -0.449853   0.317247
     50       0.000050  -0.000029   0.319603   0.000026   0.000035  -0.000009
     51      -0.316158   0.184702   0.000026   0.155529  -0.219290   0.055509
     52      -0.209269   0.246860   0.000035  -0.219290   0.026515   0.074189
     53      -0.246860   0.627954   0.000058  -0.362901  -0.485029   0.624455
     54       0.000035  -0.000058   0.627954   0.000033   0.000045  -0.000027
     55      -0.219290   0.362901   0.000033   0.418230  -0.280303   0.166925
     56       0.026515   0.485029   0.000045  -0.280303   0.253320   0.223100
     57      -0.074189   0.624455   0.000027  -0.166925  -0.223100   0.869372
     58       0.000007  -0.000049   0.526600   0.000013   0.000017  -0.000044
     59      -0.043127   0.304328   0.000013   0.445250  -0.108728   0.275578
     60       0.117474   0.406744   0.000017  -0.108728   0.381282   0.368319
     61       0.102650  -0.053517  -0.000029  -0.016286  -0.021767  -0.005288
     62       0.000048  -0.000011   0.115131  -0.000008   0.000013  -0.000001
     63       0.000035  -0.000014   0.153876   0.000013  -0.000001  -0.000001
     64      -0.121441  -0.026159  -0.000004   0.139661  -0.121091  -0.002585
     65      -0.221051   0.088927   0.000013   0.070487   0.003678   0.008786
     66       0.359839   0.266777  -0.000052  -0.137890   0.348413   0.176373
     67       0.456535   0.580268  -0.000087  -0.231664   0.585355   0.441361
     68       0.215966   0.757678  -0.000068  -0.181069   0.457515   0.769301
     69      -0.005667   0.056625   0.000005  -0.137535  -0.071852   0.106609
     70      -0.043765   0.175167   0.000012  -0.328926  -0.171839   0.278742
     71      -0.076602   0.369923   0.000015  -0.415803  -0.217226   0.533766
     72      -0.013339   0.059086   0.000025  -0.028484  -0.157721   0.108093
     73      -0.098111   0.181024   0.000059  -0.067465  -0.373568   0.282282
     74      -0.165665   0.377278   0.000073  -0.084166  -0.466043   0.539150
     75       0.003184   0.048765   0.000029   0.128314   0.051585   0.101556
     76       0.029180   0.156053   0.000071   0.317481   0.127633   0.266654
     77       0.057944   0.345203   0.000094   0.420388   0.169004   0.515273
     78      -0.000081   0.005843   0.000000   0.016999  -0.009853   0.018261
     79      -0.000064   0.006020   0.000000   0.017723  -0.010273   0.019167
     80       0.000000  -0.000000   0.006210  -0.000000   0.000000  -0.000000
     81       0.000550  -0.009273  -0.000000  -0.020192   0.015304  -0.008711
     82      -0.000244   0.005375   0.000000   0.015304  -0.002661   0.005049
     83      -0.003028   0.044126   0.000000   0.113520  -0.065801   0.115600
     84       0.000000  -0.000000   0.030483  -0.000000   0.000000  -0.000000
     85       0.007848  -0.045514  -0.000000  -0.086608   0.067872  -0.039719
     86      -0.003146   0.026382   0.000000   0.067872  -0.008859   0.023023
     87      -0.033088   0.141390   0.000000   0.269005  -0.155928   0.276508
     88       0.000000  -0.000000   0.135969  -0.000000   0.000000  -0.000000
     89       0.085644  -0.203015  -0.000000  -0.250282   0.223889  -0.160053
     90      -0.020790   0.117677   0.000000   0.223889   0.006192   0.092774
     91      -0.064693   0.317066   0.000000   0.347726  -0.201558   0.511860
     92       0.000000  -0.000000   0.305688  -0.000000   0.000000  -0.000000
     93       0.125283  -0.456422  -0.000000  -0.194868   0.290146  -0.397546
     94       0.025496   0.264564   0.000000   0.290146   0.137506   0.230436
     95       0.002813  -0.010091  -0.000000  -0.016965   0.009834  -0.002932
     96      -0.000000   0.000000  -0.017524   0.000000  -0.000000   0.000000
     97       0.000000  -0.000000   0.010158  -0.000000   0.000000  -0.000000
     98      -0.003598   0.008687   0.000000   0.005790  -0.023672   0.002524
     99       0.003553  -0.015167  -0.000000  -0.030546   0.006070  -0.004407
                 36         37         38         39         40         41    
      0       0.000006   0.053787  -0.005019  -0.023728   0.000009  -0.000001
      1       0.000007   0.064501  -0.006019  -0.027507   0.000011  -0.000001
      2       0.041017  -0.000003   0.000000   0.000025   0.068532  -0.006395
      3      -0.000003   0.013757   0.002544   0.098986  -0.000046   0.000005
      4       0.000000   0.002544   0.040779  -0.009237   0.000005   0.000007
      5       0.000036   0.320510  -0.029910  -0.124634   0.000049  -0.000005
      6       0.165012  -0.000012   0.000001   0.000060   0.220362  -0.020564
      7      -0.000012   0.061581   0.009652   0.145960  -0.000082   0.000010
      8       0.000001   0.009652   0.164111  -0.013621   0.000010   0.000024
      9       0.000061   0.534013  -0.049833  -0.055338   0.000022  -0.000002
     10       0.501009  -0.000030   0.000003   0.000034   0.178295  -0.016638
     11      -0.000030   0.237729   0.024569  -0.007231  -0.000017   0.000003
     12       0.000003   0.024569   0.498716   0.000675   0.000003   0.000020
     13       0.000056   0.492060  -0.045918  -0.006129   0.000002  -0.000000
     14       0.841653  -0.000033   0.000003   0.000005   0.036002  -0.003360
     15      -0.000033   0.553977   0.026846  -0.014088   0.000001   0.000000
     16       0.000003   0.026846   0.839148   0.001315   0.000000   0.000004
     17      -0.000005   0.014088  -0.001315   0.117530  -0.000094   0.000009
     18      -0.036002  -0.000001  -0.000000  -0.000094  -0.330660   0.038799
     19       0.003360  -0.000000  -0.000004   0.000009   0.038799   0.081490
     20       0.000001  -0.024601  -0.004424  -0.055182   0.000067  -0.000015
     21      -0.000000   0.001213  -0.035802   0.010390  -0.000017  -0.000045
     22      -0.000000  -0.000000  -0.000000   0.000000   0.000000  -0.000000
     23      -0.000000   0.000000  -0.000000   0.000000   0.000000   0.000000
     24       0.057350   0.000000   0.000000   0.000000   0.000000   0.000000
     25       0.000000   0.057350   0.000000  -0.000000   0.000000   0.000000
     26       0.000000   0.000000   0.057350   0.000000   0.000000   0.000000
     27       0.000000  -0.000000   0.000000   0.000000   0.000000   0.000000
     28       0.226365   0.000000   0.000000   0.000000   0.000000   0.000000
     29       0.000000   0.226365  -0.000000   0.000000   0.000000   0.000000
     30       0.000000  -0.000000   0.226365   0.000000   0.000000   0.000000
     31       0.000000   0.000000   0.000000   0.000000   0.000000   0.000000
     32       0.653055   0.000000   0.000000   0.000000  -0.000000   0.000000
     33       0.000000   0.653055   0.000000   0.000000   0.000000   0.000000
     34       0.000000   0.000000   0.653055   0.000000   0.000000   0.000000
     35       0.000000   0.000000   0.000000   0.000000   0.000000   0.000000
     36       1.000000   0.000000   0.000000   0.000000  -0.000000   0.000000
     37       0.000000   1.000000   0.000000   0.000000   0.000000   0.000000
     38       0.000000   0.000000   1.000000   0.000000   0.000000   0.000000
     39       0.000000   0.000000   0.000000   1.000000   0.000000   0.000000
     40      -0.000000   0.000000   0.000000   0.000000   1.000000   0.000000
     41       0.000000   0.000000   0.000000   0.000000   0.000000   1.000000
     42       0.000000  -0.000000   0.000000   0.000000   0.000000   0.000000
     43       0.000000   0.000000  -0.000000   0.000000   0.000000   0.000000
     44       0.000005  -0.031086  -0.041548  -0.041707  -0.000008  -0.000011
     45       0.000006  -0.037293  -0.049843  -0.050908  -0.000010  -0.000014
     46       0.043684   0.000001   0.000002   0.000032  -0.071826  -0.095998
     47       0.000001   0.035149  -0.011407  -0.076767  -0.000012  -0.000031
     48       0.000002  -0.011407   0.028438  -0.102601  -0.000031  -0.000030
     49       0.000029  -0.184418  -0.246480  -0.151530  -0.000030  -0.000040
     50       0.175114   0.000005   0.000007   0.000062  -0.178887  -0.239088
     51       0.000005   0.142847  -0.043127  -0.076803  -0.000007  -0.000048
     52       0.000007  -0.043127   0.117474  -0.102650  -0.000048  -0.000035
     53       0.000049  -0.304328  -0.406744  -0.053517  -0.000011  -0.000014
     54       0.526600   0.000013   0.000017   0.000029  -0.115131  -0.153876
     55       0.000013   0.445250  -0.108728   0.016286   0.000008  -0.000013
     56       0.000017  -0.108728   0.381282   0.021767  -0.000013   0.000001
     57       0.000044  -0.275578  -0.368319  -0.005288  -0.000001  -0.000001
     58       0.869372   0.000014   0.000019   0.000004  -0.020739  -0.027718
     59       0.000014   0.782018  -0.116752   0.008841   0.000003  -0.000001
     60       0.000019  -0.116752   0.713329   0.011816  -0.000001   0.000002
     61      -0.000004  -0.008841  -0.011816   0.135304   0.000054   0.000072
     62       0.020739  -0.000003   0.000001   0.000054  -0.058976  -0.259579
     63       0.027718   0.000001  -0.000002   0.000072  -0.259579  -0.211694
     64      -0.000000   0.022270  -0.025671   0.000030   0.000049  -0.000018
     65       0.000001   0.022512   0.013781  -0.000103  -0.000018  -0.000049
     66      -0.000020  -0.053959   0.136340  -0.205808   0.000036  -0.000092
     67      -0.000046  -0.123264   0.311456  -0.133807   0.000024  -0.000060
     68      -0.000064  -0.170882   0.431776  -0.024298   0.000004  -0.000011
     69       0.000005  -0.153401  -0.080141  -0.005655  -0.000001  -0.000000
     70       0.000013  -0.366152  -0.191287  -0.039811  -0.000004  -0.000002
     71       0.000020  -0.557659  -0.291335  -0.032408  -0.000003  -0.000002
     72       0.000027  -0.030870  -0.170931  -0.006334  -0.000001  -0.000003
     73       0.000064  -0.073594  -0.407502  -0.041835  -0.000004  -0.000022
     74       0.000097  -0.111796  -0.619036  -0.032681  -0.000003  -0.000017
     75       0.000035   0.158320   0.063648  -0.003787   0.000003   0.000001
     76       0.000085   0.379495   0.152564  -0.033343   0.000022   0.000009
     77       0.000130   0.583250   0.234477  -0.031369   0.000021   0.000008
     78       0.000000   0.029676  -0.017202  -0.000037   0.000000  -0.000000
     79       0.000000   0.031260  -0.018120  -0.000024   0.000000  -0.000000
     80       0.010637  -0.000000   0.000000   0.000000   0.000060  -0.000035
     81      -0.000000  -0.003425   0.008151   0.000333  -0.000000   0.000000
     82       0.000000   0.008151   0.005912  -0.000193   0.000000  -0.000000
     83       0.000000   0.180610  -0.104690  -0.002593   0.000000  -0.000000
     84       0.048499  -0.000000   0.000000   0.000000   0.001805  -0.001046
     85      -0.000000  -0.013557   0.035970   0.006850  -0.000000   0.000000
     86       0.000000   0.035970   0.027649  -0.003971   0.000000  -0.000000
     87       0.000000   0.386649  -0.224120  -0.026222   0.000000  -0.000000
     88       0.195433  -0.000000   0.000000   0.000000   0.034366  -0.019920
     89      -0.000000  -0.028374   0.129729   0.053832  -0.000000   0.000000
     90       0.000000   0.129729   0.120236  -0.031204   0.000000  -0.000000
     91       0.000001   0.552177  -0.320068  -0.023757   0.000000  -0.000000
     92       0.485423  -0.000000   0.000000   0.000000   0.054152  -0.031389
     93      -0.000000   0.056565   0.248586   0.016355  -0.000000   0.000000
     94       0.000000   0.248586   0.341330  -0.009480   0.000000   0.000000
     95      -0.000000   0.000715  -0.000414   0.002871  -0.000000   0.000000
     96      -0.009283   0.000000  -0.000000  -0.000000  -0.001705   0.001072
     97       0.005381  -0.000000  -0.000000   0.000000   0.001072  -0.000478
     98       0.000000  -0.005284  -0.007698  -0.002348   0.000000  -0.000000
     99      -0.000000  -0.001600  -0.005236   0.004100  -0.000000   0.000000
                 42         43         44         45         46         47    
      0       0.040388  -0.007604   0.000000  -0.000000   0.000000   0.000000
      1       0.046820  -0.008815  -0.000000   0.000000  -0.000000  -0.000000
      2      -0.000027   0.000005  -0.000000   0.000000   0.000000  -0.000000
      3      -0.167305   0.038007  -0.000000   0.000000  -0.000000  -0.000002
      4       0.028403   0.064389  -0.000000   0.000000  -0.000000  -0.000001
      5       0.212146  -0.039942   0.000047   0.000029   0.000000   0.000663
      6      -0.000053   0.000010  -0.000000  -0.000000   0.000221  -0.000000
      7      -0.244641   0.066985  -0.000232  -0.000161  -0.000000  -0.002774
      8       0.063957   0.212192  -0.000095  -0.000066  -0.000000  -0.001226
      9       0.094193  -0.017734   0.007584   0.008719   0.000000   0.020284
     10      -0.000019   0.000003  -0.000000  -0.000000   0.012340  -0.000001
     11       0.015386   0.014034  -0.023745  -0.027861  -0.000001  -0.048550
     12       0.031841   0.175433  -0.009720  -0.011406  -0.000000  -0.024927
     13       0.010432  -0.001964   0.025728   0.030562   0.000000   0.020550
     14      -0.000001   0.000000  -0.000001  -0.000001   0.022792  -0.000001
     15       0.024601  -0.001213  -0.045720  -0.054637  -0.000001  -0.013233
     16       0.004424   0.035802  -0.018717  -0.022367  -0.000000  -0.014748
     17      -0.055182   0.010390  -0.000070  -0.000034  -0.000000  -0.001176
     18       0.000067  -0.000017   0.000000   0.000000  -0.000239   0.000000
     19      -0.000015  -0.000045   0.000000   0.000000  -0.000098   0.000000
     20       0.164681  -0.093943   0.000087   0.000042   0.000000   0.001383
     21      -0.093943  -0.316593   0.000086   0.000042   0.000000   0.001498
     22       0.000000   0.000000   0.000147   0.000033  -0.000000   0.002245
     23       0.000000   0.000000   0.000033  -0.000003  -0.000000   0.001255
     24       0.000000   0.000000   0.000000   0.000000   0.006477   0.000004
     25       0.000000   0.000000  -0.002245  -0.001255   0.000004  -0.015568
     26       0.000000   0.000000  -0.003001  -0.001677   0.000005  -0.029463
     27       0.000000   0.000000   0.022458   0.024966  -0.000010   0.062542
     28       0.000000   0.000000   0.000006   0.000008   0.059387   0.000016
     29       0.000000   0.000000  -0.040539  -0.047987   0.000016  -0.040872
     30       0.000000   0.000000  -0.054182  -0.064137   0.000021  -0.134000
     31       0.000000   0.000000   0.063226   0.075748  -0.000009   0.054383
     32       0.000000   0.000000   0.000011   0.000014   0.094102   0.000009
     33      -0.000000   0.000000  -0.069754  -0.085096   0.000009   0.036676
     34       0.000000  -0.000000  -0.093228  -0.113733   0.000012  -0.076752
     35       0.000000   0.000000   0.049753   0.059334  -0.000002   0.013847
     36       0.000000   0.000000   0.000005   0.000006   0.043684   0.000001
     37      -0.000000   0.000000  -0.031086  -0.037293   0.000001   0.035149
     38       0.000000  -0.000000  -0.041548  -0.049843   0.000002  -0.011407
     39       0.000000   0.000000  -0.041707  -0.050908   0.000032  -0.076767
     40       0.000000   0.000000  -0.000008  -0.000010  -0.071826  -0.000012
     41       0.000000   0.000000  -0.000011  -0.000014  -0.095998  -0.000031
     42       1.000000   0.000000  -0.020386  -0.024884   0.000009  -0.129620
     43       0.000000   1.000000   0.069302   0.084591  -0.000031   0.100468
     44      -0.020386   0.069302   1.000000   0.878444   0.000000   0.000000
     45      -0.024884   0.084591   0.878444   1.000000   0.000000  -0.000000
     46       0.000009  -0.000031   0.000000   0.000000   1.000000  -0.000000
     47      -0.129620   0.100468   0.000000  -0.000000  -0.000000   1.000000
     48       0.018756   0.190757   0.000000  -0.000000  -0.000000   0.000000
     49      -0.074068   0.251790   0.329179   0.418800  -0.000000  -0.000000
     50       0.000014  -0.000048   0.000000  -0.000000   0.629120   0.000000
     51      -0.266911   0.060147  -0.000000   0.000000   0.000000   0.629120
     52       0.121441   0.221051  -0.000000   0.000000  -0.000000   0.000000
     53      -0.026159   0.088927   0.153761   0.187145  -0.000000   0.000000
     54       0.000004  -0.000013  -0.000000   0.000000   0.220230  -0.000000
     55      -0.139661  -0.070487   0.000000  -0.000000  -0.000000   0.220230
     56       0.121091  -0.003678   0.000000  -0.000000   0.000000   0.000000
     57      -0.002585   0.008786   0.065562   0.078316  -0.000000   0.000000
     58       0.000000  -0.000001   0.000000  -0.000000   0.057350  -0.000000
     59      -0.022270  -0.022512  -0.000000   0.000000  -0.000000   0.057350
     60       0.025671  -0.013781  -0.000000  -0.000000   0.000000  -0.000000
     61       0.000030  -0.000103   0.000000   0.000000  -0.000000  -0.000000
     62       0.000049  -0.000018   0.000000   0.000000   0.000000  -0.000000
     63      -0.000018  -0.000049   0.000000   0.000000  -0.000000   0.000000
     64      -0.362800  -0.146561   0.000000   0.000000   0.000000   0.000000
     65      -0.146561   0.092315   0.000000   0.000000   0.000000  -0.000000
     66      -0.259923  -0.243947   0.000002   0.000000  -0.000000   0.000017
     67      -0.168991  -0.158604   0.002325   0.002375  -0.000002   0.002689
     68      -0.030687  -0.028800   0.024455   0.028919  -0.000005   0.007848
     69       0.005594   0.008040   0.012053   0.010945  -0.000006  -0.108043
     70       0.039386   0.056600   0.074801   0.089658  -0.000010  -0.175894
     71       0.032062   0.046075   0.079468   0.095477  -0.000004  -0.066393
     72      -0.010277   0.003837   0.011986   0.010874   0.000020   0.042480
     73      -0.067883   0.025346   0.074649   0.089469   0.000032   0.069353
     74      -0.053029   0.019799   0.079414   0.095410   0.000012   0.026209
     75       0.004734   0.004540   0.000000   0.000000   0.000000   0.000000
     76       0.041681   0.039974   0.000002   0.000001   0.000000   0.000020
     77       0.039213   0.037607   0.001934   0.002204   0.000001   0.004748
     78       0.000032  -0.000055   0.000000   0.000000   0.000000   0.000000
     79       0.000021  -0.000036   0.000000   0.000000   0.000000   0.000000
     80      -0.000000   0.000000   0.000000   0.000000   0.000000   0.000000
     81      -0.000256   0.000518   0.000000   0.000000   0.000000   0.000000
     82       0.000219  -0.000260   0.000000   0.000000   0.000000   0.000000
     83       0.002232  -0.003897   0.000000  -0.000000  -0.000000   0.000000
     84      -0.000000   0.000000   0.000000  -0.000000   0.000000   0.000000
     85      -0.004989   0.010816  -0.000000   0.000000   0.000000  -0.000002
     86       0.004985  -0.005071   0.000000  -0.000000  -0.000000   0.000000
     87       0.022573  -0.039411   0.000220   0.000210  -0.000000   0.001625
     88      -0.000000   0.000000   0.000000   0.000000   0.000592   0.000000
     89      -0.029056   0.090809  -0.001098  -0.001098   0.000000  -0.007033
     90       0.056683  -0.029818   0.000049   0.000049  -0.000000   0.000343
     91       0.020451  -0.035706   0.009300   0.010894  -0.000001   0.018151
     92      -0.000000   0.000000   0.000001   0.000001   0.011504   0.000002
     93       0.013159   0.040182  -0.028529  -0.033812   0.000002  -0.042777
     94       0.055151   0.012666   0.001282   0.001520  -0.000000   0.002439
     95      -0.002348   0.004100  -0.000000   0.000000   0.000000  -0.000000
     96       0.000000  -0.000000  -0.000000   0.000000  -0.000000  -0.000000
     97      -0.000000   0.000000   0.000000  -0.000000   0.000000   0.000000
     98       0.000305  -0.004594   0.000000  -0.000000  -0.000000   0.000000
     99      -0.004594   0.005695  -0.000000   0.000000   0.000000  -0.000000
                 48         49         50         51         52         53    
      0       0.000000   0.000047   0.000000   0.000232   0.000095   0.007584
      1      -0.000000   0.000029   0.000000   0.000161   0.000066   0.008719
      2      -0.000000  -0.000000   0.000221  -0.000000  -0.000000  -0.000000
      3      -0.000001  -0.000663  -0.000000  -0.002774  -0.001226  -0.020284
      4      -0.000000  -0.000271  -0.000000  -0.001226  -0.000281  -0.008304
      5       0.000271   0.005309   0.000000   0.015904   0.006511   0.068564
      6      -0.000000  -0.000000   0.005309  -0.000001  -0.000000  -0.000002
      7      -0.001226  -0.015904  -0.000001  -0.042330  -0.019502  -0.095067
      8      -0.000281  -0.006511  -0.000000  -0.019502  -0.002675  -0.038918
      9       0.008304   0.068564   0.000002   0.095067   0.038918   0.206505
     10      -0.000000  -0.000003   0.057834  -0.000004  -0.000002  -0.000006
[...]
  0C   1dxy       0.142322 -0.627408 -0.275059 -0.000009  0.132759  0.583624
  1C   1s         0.052566 -0.019892 -0.005554  0.000001 -0.004224  0.009152
  1C   2s         0.112512 -0.047391  0.004740  0.000001 -0.005981  0.008531
  1C   1pz        0.000096 -0.000003 -0.000044  0.007985 -0.000013  0.000006
  1C   1px        0.306038  0.484876 -0.909718 -0.000010 -0.024111  0.139719
  1C   1py       -0.664751  0.376215 -0.217763 -0.000003 -0.037707  0.022050
  1C   3s        -0.679519  0.431802 -0.212247 -0.000036  0.036298 -0.059807
  1C   2pz       -0.000275  0.000053  0.000069 -0.017000  0.000032 -0.000017
  1C   2px       -0.156515 -1.444526  2.883950  0.000016  0.149867 -0.605236
  1C   2py        1.862906 -1.215556  1.060562  0.000002  0.074654 -0.125361
  1C   4s        -2.460001 -0.086177 -0.532513  0.000270  0.597294  0.094169
  1C   3pz        0.000040 -0.000032 -0.000078  0.106528  0.000004 -0.000005
  1C   3px        0.468852  0.165990 -0.503226 -0.000043  0.265430  0.164146
  1C   3py       -0.014249  0.909075  0.735543 -0.000313 -0.091079 -0.008566
  1C   5s         4.775760 -2.320997 -1.778012 -0.001379 -4.037202 -0.874723
  1C   4pz        0.000191 -0.000077 -0.000028 -0.257835 -0.000105  0.000090
  1C   4px       -0.055361  0.835946  0.382737  0.000363 -0.726266  0.339943
  1C   4py       -0.998959  0.966654  0.865202  0.000409  0.150670  0.399968
  1C   1dz2       0.437676 -0.121675 -0.026181 -0.000002 -0.008179 -0.000912
  1C   1dxz       0.000041 -0.000125  0.000245  0.031478  0.000024 -0.000034
  1C   1dyz       0.000096 -0.000068  0.000063  0.012105  0.000005  0.000018
  1C   1dx2y2    -0.128142 -0.391864  0.969816  0.000002  0.119585 -0.243535
  1C   1dxy      -0.448639  0.476656 -0.830944 -0.000003  0.041365  0.208570
  2C   1s        -0.034454  0.034765 -0.046729 -0.000001 -0.003369  0.012631
  2C   2s        -0.073093  0.075681 -0.099005 -0.000001 -0.004134  0.017681
  2C   1pz        0.000030 -0.000043  0.000046 -0.009229  0.000004 -0.000014
  2C   1px       -0.509468  0.233308 -0.127415  0.000006 -0.020995  0.007919
  2C   1py       -0.471859  0.241419 -0.261247  0.000011  0.008591  0.033091
  2C   3s         0.502604 -0.599469  0.837616  0.000027  0.044721 -0.198480
  2C   2pz       -0.000113  0.000152 -0.000191  0.021566 -0.000011  0.000057
  2C   2px        1.291228 -0.898946  0.960686 -0.000008  0.079746 -0.170215
  2C   2py        1.359264 -1.048032  1.400979 -0.000021 -0.004883 -0.257550
  2C   4s         1.858353 -0.047727  1.259146 -0.000372 -0.084454 -0.051982
  2C   3pz       -0.000098 -0.000079 -0.000000 -0.033171  0.000003 -0.000018
  2C   3px       -0.149350  0.477134  0.241626 -0.000160 -0.069648  0.043914
  2C   3py        0.327612  0.201304 -0.079999 -0.000029  0.057533  0.094199
  2C   5s        -3.686705  3.533901  1.664138  0.001520  1.092577  0.808160
  2C   4pz        0.000057 -0.000079 -0.000066  0.105320 -0.000051 -0.000090
  2C   4px       -0.728185  0.594794  0.124468  0.000198  0.333509  0.017330
  2C   4py       -0.560040  0.639059  0.211782  0.000314  0.178088  0.219011
  2C   1dz2      -0.289051  0.208684 -0.259531  0.000009  0.003353  0.038737
  2C   1dxz      -0.000088  0.000059 -0.000127  0.008581 -0.000008  0.000031
  2C   1dyz      -0.000058  0.000037 -0.000082  0.002532  0.000011  0.000028
  2C   1dx2y2    -0.112660  0.125950 -0.211550 -0.000003  0.041871  0.048434
  2C   1dxy       0.666929 -0.523750  0.723447 -0.000004  0.023155 -0.128417
  3H   1s        -0.484547  0.138825  0.131446 -0.000011  0.053686 -0.039676
  3H   2s         0.363959 -0.243335 -0.250428  0.000073 -0.078299  0.007540
  3H   3s         0.368529 -0.251769 -0.299045  0.000094  0.162054  0.063710
  4H   1s         0.292342 -0.201029  0.196505  0.000005  0.003464 -0.033061
  4H   2s        -0.263463  0.169581 -0.076496 -0.000012 -0.005578  0.008482
  4H   3s        -0.228998  0.216704 -0.079515 -0.000042 -0.027170  0.057956
  5H   1s         0.255495 -0.181482  0.239245 -0.000004  0.015622 -0.030906
  5H   2s        -0.211482  0.066279 -0.191929  0.000050  0.050728  0.001802
  5H   3s         0.186205  0.016039 -0.160774  0.000051  0.032098  0.129136
  6H   1s         0.006847  0.295380 -0.188209  0.000005 -0.071489 -0.096779
  6H   2s         0.043900 -0.187540  0.234918 -0.000028 -0.021291  0.024078
  6H   3s        -0.029619  0.098793  0.249648 -0.000033 -0.306151  0.226391
  7O   1s        -0.009820  0.001958  0.018366  0.000001  0.000214 -0.019750
  7O   2s        -0.023110  0.001171  0.038687  0.000001  0.000523 -0.037270
  7O   1pz        0.000006 -0.000033 -0.000042  1.290847 -0.000235 -0.000181
  7O   1px        0.028043  0.074717  0.163391 -0.000115 -1.122328  0.639968
  7O   1py       -0.017666 -0.204944 -0.226628 -0.000275 -0.636576 -1.127319
  7O   3s         0.262575  0.217034 -0.181157 -0.000015 -0.009938  0.188111
  7O   2pz        0.000013 -0.000009 -0.000021 -1.542533  0.000292  0.000298
  7O   2px       -0.091665  0.026518  0.105806  0.000140  1.392275 -1.064748
  7O   2py        0.107585 -0.031996 -0.199205  0.000325  0.790189  1.870041
  7O   4s        -0.792569 -2.307657 -1.637439  0.000087  0.042933  1.295965
  7O   3pz       -0.000037 -0.000183 -0.000161  0.930515 -0.000185 -0.000054
  7O   3px        0.501165  0.729609  0.646688 -0.000107 -0.949682  0.212755
  7O   3py       -0.303929 -1.402713 -0.937215 -0.000177 -0.489736 -0.357405
  7O   5s        -0.962869 -1.025637  0.051176  0.000163 -0.163935 -1.407809
  7O   4pz       -0.000037 -0.000108  0.000028 -0.490326  0.000064 -0.000002
  7O   4px       -0.009664  0.038302 -0.202811  0.000018  0.589552  0.018752
  7O   4py       -0.369284 -0.002112  0.356691  0.000164  0.161199  0.042279
  7O   1dz2       0.208171  0.524499  0.210260 -0.000006 -0.007705 -0.230913
  7O   1dxz       0.000043  0.000085  0.000135  0.008820  0.000001 -0.000069
  7O   1dyz       0.000006 -0.000210 -0.000086 -0.022841  0.000016  0.000098
  7O   1dx2y2    -0.265991  0.581300  0.208934 -0.000003 -0.050052 -0.235737
  7O   1dxy       0.426049  0.666942  0.568446 -0.000002  0.017661 -0.388600
                     96        97        98        99   
                  24.54988  24.92454  25.31415  51.64285
                   0.00000   0.00000   0.00000   0.00000
                  --------  --------  --------  --------
  0C   1s        -0.489336 -1.975660 -0.055050  0.011858
  0C   2s         0.527326  2.160105  0.061504 -0.019227
  0C   1pz        0.000002 -0.000011  0.000002  0.000002
  0C   1px        0.052098 -0.015594  0.021650 -0.019970
  0C   1py       -0.022811 -0.034347 -0.004352  0.024165
  0C   3s        -0.144180 -0.650990 -0.050725  0.002943
  0C   2pz        0.000001  0.000053  0.000001 -0.000006
  0C   2px       -0.193792  0.023281 -0.018364  0.066336
  0C   2py        0.118352  0.211672  0.017208 -0.069324
  0C   4s        -0.044621  0.434257  0.009018 -0.192302
  0C   3pz        0.000034 -0.000005  0.000004  0.000039
  0C   3px        0.142293 -0.058468  0.012495 -0.016645
  0C   3py        0.093363  0.030049  0.032527  0.251061
  0C   5s         1.263878  0.110618 -0.003736  0.163258
  0C   4pz       -0.000016  0.000004  0.000004 -0.000017
  0C   4px       -0.275431  0.020927  0.000274 -0.007757
  0C   4py       -0.024587  0.045808 -0.002792 -0.042289
  0C   1dz2       0.005410  0.098579 -0.016568 -0.013816
  0C   1dxz       0.000023  0.000003  0.000008 -0.000012
  0C   1dyz      -0.000019 -0.000022 -0.000009  0.000008
  0C   1dx2y2     0.111088 -0.015243  0.013865 -0.044284
  0C   1dxy       0.036944  0.122247 -0.007679 -0.048509
  1C   1s        -1.333895  0.372700 -1.493327  0.002163
  1C   2s         1.432784 -0.405758  1.652529 -0.003584
  1C   1pz       -0.000000 -0.000006  0.000010 -0.000001
  1C   1px        0.033150 -0.064415 -0.053524 -0.012035
  1C   1py        0.017743 -0.009542 -0.079377 -0.001332
  1C   3s        -0.364827  0.082265 -0.591702 -0.009072
  1C   2pz       -0.000003  0.000013 -0.000056  0.000003
  1C   2px       -0.153716  0.201063  0.308115  0.057166
  1C   2py       -0.061289  0.051784  0.450062  0.009910
  1C   4s         0.509372 -0.068263  0.164697  0.160844
  1C   3pz        0.000012 -0.000009  0.000018  0.000004
  1C   3px        0.107552 -0.100888 -0.012564 -0.026621
  1C   3py       -0.091991 -0.069182 -0.128598 -0.222669
  1C   5s        -1.744683 -0.149852 -0.436042 -0.217661
  1C   4pz       -0.000078 -0.000006 -0.000015  0.000013
  1C   4px       -0.305190  0.008334  0.071202  0.005024
  1C   4py        0.278766 -0.043944  0.100580  0.030685
  1C   1dz2      -0.014837 -0.032531  0.131583 -0.005044
  1C   1dxz      -0.000015  0.000026  0.000029 -0.000001
  1C   1dyz      -0.000006  0.000010  0.000033 -0.000003
  1C   1dx2y2    -0.054483  0.106865  0.059266  0.020821
  1C   1dxy       0.065166 -0.035048 -0.242824 -0.019752
  2C   1s        -1.447925  0.323004  1.394283  0.003387
  2C   2s         1.556294 -0.352763 -1.543715 -0.005789
  2C   1pz        0.000000 -0.000000  0.000010  0.000002
  2C   1px       -0.003046 -0.003071 -0.058583  0.000076
  2C   1py       -0.003501 -0.002438 -0.079128 -0.000120
  2C   3s        -0.397052  0.126906  0.553528  0.014864
  2C   2pz        0.000004 -0.000002 -0.000054 -0.000007
  2C   2px       -0.026894  0.046598  0.331454  0.006620
  2C   2py       -0.034625  0.045068  0.445637  0.012397
  2C   4s         0.292789 -0.158145 -0.166886 -0.200997
  2C   3pz        0.000003  0.000006  0.000003  0.000017
  2C   3px       -0.053226 -0.017410 -0.083463 -0.067388
  2C   3py       -0.004963 -0.033510 -0.046014 -0.042773
  2C   5s         0.588439  0.140072  0.435042  0.121560
  2C   4pz       -0.000003 -0.000003 -0.000011 -0.000015
  2C   4px        0.073621  0.041390  0.073656  0.013879
  2C   4py        0.039200  0.050590  0.099875  0.033982
  2C   1dz2       0.001052 -0.000407 -0.127643 -0.003582
  2C   1dxz       0.000002 -0.000004 -0.000031 -0.000001
  2C   1dyz       0.000002  0.000005 -0.000034 -0.000001
  2C   1dx2y2    -0.000590  0.003345 -0.074003 -0.002796
  2C   1dxy      -0.002631  0.028957  0.241644  0.006545
  3H   1s         0.008120  0.012004 -0.034157 -0.003874
  3H   2s         0.031305  0.003545  0.030924  0.047383
  3H   3s        -0.050379  0.044729  0.010578  0.058135
  4H   1s         0.009100  0.001313  0.029593  0.000338
  4H   2s         0.014563  0.008001 -0.013939  0.004098
  4H   3s        -0.152082 -0.000396 -0.004984 -0.012724
  5H   1s         0.007149  0.006157  0.027851 -0.002532
  5H   2s         0.031562  0.005314  0.007209  0.023190
  5H   3s        -0.106262  0.021374  0.020797  0.001470
  6H   1s         0.013852 -0.022117  0.002155  0.014934
  6H   2s        -0.011987  0.007302 -0.005444 -0.036247
  6H   3s        -0.120076 -0.084740 -0.013490 -0.060652
  7O   1s        -0.006104 -0.010077  0.000273 -2.247792
  7O   2s         0.000089  0.000731  0.000022  2.342754
  7O   1pz       -0.000003 -0.000009  0.000002  0.000003
  7O   1px        0.018307  0.027710  0.001635 -0.009329
  7O   1py       -0.024255 -0.056699 -0.000880  0.015470
  7O   3s         0.010052 -0.010866 -0.006145 -0.327077
  7O   2pz        0.000011  0.000027 -0.000004 -0.000011
  7O   2px       -0.063529 -0.085094 -0.004207  0.039354
  7O   2py        0.089705  0.173879  0.002480 -0.064567
  7O   4s         0.220397  0.352310  0.034468  0.418889
  7O   3pz        0.000014  0.000021  0.000002  0.000010
  7O   3px       -0.043352 -0.070662 -0.011933 -0.058746
  7O   3py        0.050527  0.122033  0.012638  0.065930
  7O   5s        -0.184301 -0.324441 -0.010935 -0.082694
  7O   4pz       -0.000023 -0.000019 -0.000001  0.000009
  7O   4px        0.003073  0.096738  0.008387 -0.008398
  7O   4py       -0.061317 -0.131797 -0.007630  0.015847
  7O   1dz2      -0.021701 -0.064803 -0.000777  0.008015
  7O   1dxz      -0.000009 -0.000012  0.000001  0.000002
  7O   1dyz       0.000008  0.000028 -0.000004 -0.000004
  7O   1dx2y2    -0.018177 -0.061995  0.000385  0.009261
  7O   1dxy      -0.046377 -0.085179 -0.006576  0.012087



                    ********************************
                    * MULLIKEN POPULATION ANALYSIS *
                    ********************************

-----------------------
MULLIKEN ATOMIC CHARGES
-----------------------
   0 C :   -0.070785
   1 C :   -0.008105
   2 C :   -0.564227
   3 H :    0.247532
   4 H :    0.260567
   5 H :    0.281448
   6 H :    0.212835
   7 O :   -0.359264
Sum of atomic charges:    0.0000000

--------------------------------
MULLIKEN REDUCED ORBITAL CHARGES
--------------------------------
  0 C s       :     3.339303  s :     3.339303
      pz      :     0.660619  p :     2.574089
      px      :     0.966733
      py      :     0.946737
      dz2     :     0.007373  d :     0.157393
      dxz     :     0.015381
      dyz     :     0.022596
      dx2y2   :     0.062325
      dxy     :     0.049719
  1 C s       :     2.829763  s :     2.829763
      pz      :     1.071057  p :     3.110487
      px      :     0.930792
      py      :     1.108637
      dz2     :     0.005773  d :     0.067855
      dxz     :     0.004797
      dyz     :     0.006026
      dx2y2   :     0.030488
      dxy     :     0.020771
  2 C s       :     3.392132  s :     3.392132
      pz      :     0.846158  p :     3.108707
      px      :     1.136367
      py      :     1.126182
      dz2     :     0.006680  d :     0.063388
      dxz     :     0.004173
      dyz     :     0.007493
      dx2y2   :     0.027891
      dxy     :     0.017152
  3 H s       :     0.752468  s :     0.752468
  4 H s       :     0.739433  s :     0.739433
  5 H s       :     0.718552  s :     0.718552
  6 H s       :     0.787165  s :     0.787165
  7 O s       :     3.895760  s :     3.895760
      pz      :     1.355935  p :     4.445319
      px      :     1.701283
      py      :     1.388101
      dz2     :     0.002042  d :     0.018186
      dxz     :     0.001400
      dyz     :     0.004365
      dx2y2   :     0.004412
      dxy     :     0.005967


                     *******************************
                     * LOEWDIN POPULATION ANALYSIS *
                     *******************************

----------------------
LOEWDIN ATOMIC CHARGES
----------------------
   0 C :    0.036893
   1 C :   -0.262658
   2 C :   -0.168009
   3 H :    0.167205
   4 H :    0.161620
   5 H :    0.183356
   6 H :    0.148173
   7 O :   -0.266580

-------------------------------
LOEWDIN REDUCED ORBITAL CHARGES
-------------------------------
  0 C s       :     2.853533  s :     2.853533
      pz      :     0.659972  p :     2.810340
      px      :     1.082295
      py      :     1.068073
      dz2     :     0.019081  d :     0.299235
      dxz     :     0.027179
      dyz     :     0.033148
      dx2y2   :     0.121630
      dxy     :     0.098197
  1 C s       :     2.866278  s :     2.866278
      pz      :     1.025650  p :     3.266705
      px      :     1.107319
      py      :     1.133736
      dz2     :     0.010888  d :     0.129675
      dxz     :     0.009584
      dyz     :     0.008097
      dx2y2   :     0.059455
      dxy     :     0.041652
  2 C s       :     2.921216  s :     2.921216
      pz      :     0.856181  p :     3.143056
      px      :     1.125463
      py      :     1.161412
      dz2     :     0.008600  d :     0.103736
      dxz     :     0.006208
      dyz     :     0.011421
      dx2y2   :     0.045928
      dxy     :     0.031579
  3 H s       :     0.832795  s :     0.832795
  4 H s       :     0.838380  s :     0.838380
  5 H s       :     0.816644  s :     0.816644
  6 H s       :     0.851827  s :     0.851827
  7 O s       :     3.531218  s :     3.531218
      pz      :     1.356958  p :     4.709431
      px      :     1.753511
      py      :     1.598961
      dz2     :     0.003650  d :     0.025931
      dxz     :     0.001365
      dyz     :     0.004237
      dx2y2   :     0.006626
      dxy     :     0.010053


                      *****************************
                      * MAYER POPULATION ANALYSIS *
                      *****************************

  NA   - Mulliken gross atomic population
  ZA   - Total nuclear charge
  QA   - Mulliken gross atomic charge
  VA   - Mayer's total valence
  BVA  - Mayer's bonded valence
  FA   - Mayer's free valence

  ATOM       NA         ZA         QA         VA         BVA        FA
  0 C      6.0708     6.0000    -0.0708     4.0230     4.0230    -0.0000
  1 C      6.0081     6.0000    -0.0081     3.4509     3.4509    -0.0000
  2 C      6.5642     6.0000    -0.5642     4.1730     4.1730     0.0000
  3 H      0.7525     1.0000     0.2475     0.9145     0.9145    -0.0000
  4 H      0.7394     1.0000     0.2606     0.8993     0.8993     0.0000
  5 H      0.7186     1.0000     0.2814     0.8973     0.8973     0.0000
  6 H      0.7872     1.0000     0.2128     0.9007     0.9007    -0.0000
  7 O      8.3593     8.0000    -0.3593     1.8653     1.8653    -0.0000

  Mayer bond orders larger than 0.1
B(  0-C ,  1-C ) :   0.8820 B(  0-C ,  2-C ) :   0.2677 B(  0-C ,  6-H ) :   0.8984 
B(  0-C ,  7-O ) :   1.9168 B(  1-C ,  2-C ) :   1.9472 B(  1-C ,  3-H ) :   0.8414 
B(  1-C ,  7-O ) :  -0.1419 B(  2-C ,  4-H ) :   0.9161 B(  2-C ,  5-H ) :   0.8917 


-------
TIMINGS
-------

Total SCF time: 0 days 0 hours 0 min 8 sec 

Total time                  ....       8.146 sec
Sum of individual times     ....       8.606 sec  (105.6%)

Fock matrix formation       ....       7.991 sec  ( 98.1%)
Diagonalization             ....       0.010 sec  (  0.1%)
Density matrix formation    ....       0.001 sec  (  0.0%)
Population analysis         ....       0.049 sec  (  0.6%)
Initial guess               ....       0.357 sec  (  4.4%)
Orbital Transformation      ....       0.000 sec  (  0.0%)
Orbital Orthonormalization  ....       0.000 sec  (  0.0%)
DIIS solution               ....       0.003 sec  (  0.0%)
SOSCF solution              ....       0.022 sec  (  0.3%)

-------------------------   --------------------
FINAL SINGLE POINT ENERGY      -190.803885006830
-------------------------   --------------------


                            ***************************************
                            *     ORCA property calculations      *
                            ***************************************

                                    ---------------------
                                    Active property flags
                                    ---------------------
   (+) Dipole Moment


------------------------------------------------------------------------------
                       ORCA ELECTRIC PROPERTIES CALCULATION
------------------------------------------------------------------------------

Dipole Moment Calculation                       ... on
Quadrupole Moment Calculation                   ... off
Polarizability Calculation                      ... off
GBWName                                         ... acrolein_orca.gbw
Electron density file                           ... acrolein_orca.scfp.tmp

-------------
DIPOLE MOMENT
-------------
                                X             Y             Z
Electronic contribution:      2.27709      -0.39808      -0.00019
Nuclear contribution   :     -3.27926       1.18505       0.00036
                        -----------------------------------------
Total Dipole Moment    :     -1.00217       0.78697       0.00017
                        -----------------------------------------
Magnitude (a.u.)       :      1.27423
Magnitude (Debye)      :      3.23884


Timings for individual modules:

Sum of individual times         ...       20.226 sec (=   0.337 min)
GTO integral calculation        ...        5.661 sec (=   0.094 min)  28.0 %
SCF iterations                  ...       14.565 sec (=   0.243 min)  72.0 %
                             ****ORCA TERMINATED NORMALLY****
TOTAL RUN TIME: 0 days 0 hours 0 minutes 25 seconds 951 msec
