
                                 *****************
                                 * O   R   C   A *
                                 *****************

           --- An Ab Initio, DFT and Semiempirical electronic structure package ---

                  #######################################################
                  #                        -***-                        #
                  #          Department of theory and spectroscopy      #
                  #               Directorship: Frank Neese             #
                  #        Max Planck Institute fuer Kohlenforschung    #
                  #                Kaiser Wilhelm Platz 1               #
                  #                 D-45470 Muelheim/Ruhr               #
                  #                      Germany                        #
                  #                                                     #
                  #                  All rights reserved                #
                  #                        -***-                        #
                  #######################################################


                         Program Version 4.2.0 -  RELEASE  -


 With contributions from (in alphabetic order):
   Daniel Aravena         : Magnetic Suceptibility
   Michael Atanasov       : Ab Initio Ligand Field Theory (pilot matlab implementation)
   Alexander A. Auer      : GIAO ZORA, VPT2
   Ute Becker             : Parallelization
   Giovanni Bistoni       : ED, misc. LED, open-shell LED, HFLED
   Martin Brehm           : Molecular dynamics
   Dmytro Bykov           : SCF Hessian
   Vijay G. Chilkuri      : MRCI spin determinant printing, contributions to CSF-ICE
   Dipayan Datta          : RHF DLPNO-CCSD density
   Achintya Kumar Dutta   : EOM-CC, STEOM-CC
   Dmitry Ganyushin       : Spin-Orbit,Spin-Spin,Magnetic field MRCI
   Miquel Garcia          : C-PCM Hessian, Gaussian charge scheme
   Yang Guo               : DLPNO-NEVPT2, CIM, IAO-localization
   Andreas Hansen         : Spin unrestricted coupled pair/coupled cluster methods
   Benjamin Helmich-Paris : CASSCF linear response (MC-RPA)
   Lee Huntington         : MR-EOM, pCC
   Robert Izsak           : Overlap fitted RIJCOSX, COSX-SCS-MP3, EOM
   Christian Kollmar      : KDIIS, OOCD, Brueckner-CCSD(T), CCSD density
   Simone Kossmann        : Meta GGA functionals, TD-DFT gradient, OOMP2, MP2 Hessian
   Martin Krupicka        : AUTO-CI
   Lucas Lang             : DCDCAS
   Dagmar Lenk            : GEPOL surface, SMD
   Dimitrios Liakos       : Extrapolation schemes; Compound Job, initial MDCI parallelization
   Dimitrios Manganas     : Further ROCIS development; embedding schemes
   Dimitrios Pantazis     : SARC Basis sets
   Taras Petrenko         : DFT Hessian,TD-DFT gradient, ASA, ECA, R-Raman, ABS, FL, XAS/XES, NRVS
   Peter Pinski           : DLPNO-MP2, DLPNO-MP2 Gradient
   Christoph Reimann      : Effective Core Potentials
   Marius Retegan         : Local ZFS, SOC
   Christoph Riplinger    : Optimizer, TS searches, QM/MM, DLPNO-CCSD(T), (RO)-DLPNO pert. Triples
   Tobias Risthaus        : Range-separated hybrids, TD-DFT gradient, RPA, STAB
   Michael Roemelt        : Original ROCIS implementation
   Masaaki Saitow         : Open-shell DLPNO-CCSD energy and density
   Barbara Sandhoefer     : DKH picture change effects
   Avijit Sen             : IP-ROCIS
   Kantharuban Sivalingam : CASSCF convergence, NEVPT2, FIC-MRCI
   Bernardo de Souza      : ESD, SOC TD-DFT
   Georgi Stoychev        : AutoAux, RI-MP2 NMR
   Willem Van den Heuvel  : Paramagnetic NMR
   Boris Wezisla          : Elementary symmetry handling
   Frank Wennmohs         : Technical directorship


 We gratefully acknowledge several colleagues who have allowed us to
 interface, adapt or use parts of their codes:
   Stefan Grimme, W. Hujo, H. Kruse,             : VdW corrections, initial TS optimization,
                  C. Bannwarth                     DFT functionals, gCP, sTDA/sTD-DF
   Ed Valeev, F. Pavosevic, A. Kumar             : LibInt (2-el integral package), F12 methods
   Garnet Chan, S. Sharma, J. Yang, R. Olivares  : DMRG
   Ulf Ekstrom                                   : XCFun DFT Library
   Mihaly Kallay                                 : mrcc  (arbitrary order and MRCC methods)
   Andreas Klamt, Michael Diedenhofen            : otool_cosmo (COSMO solvation model)
   Jiri Pittner, Ondrej Demel                    : Mk-CCSD
   Frank Weinhold                                : gennbo (NPA and NBO analysis)
   Christopher J. Cramer and Donald G. Truhlar   : smd solvation model
   Lars Goerigk                                  : TD-DFT with DH, B97 family of functionals
   V. Asgeirsson, H. Jonsson                     : NEB implementation
   FAccTs GmbH                                   : IRC, NEB, NEB-TS, Multilevel, MM, QM/MM, CI optimization
   S Lehtola, MJT Oliveira, MAL Marques          : LibXC Library


 Your calculation uses the libint2 library for the computation of 2-el integrals
 For citations please refer to: http://libint.valeyev.net

 Your ORCA version has been built with support for libXC version: 4.2.3
 For citations please refer to: https://tddft.org/programs/libxc/

 This ORCA versions uses:
   CBLAS   interface :  Fast vector & matrix operations
   LAPACKE interface :  Fast linear algebra routines
   SCALAPACK package :  Parallel linear algebra routines


Your calculation utilizes the atom-pairwise dispersion correction
with the zero-damping scheme (D30)
Cite in your paper:
S.Grimme, J.Antony, S.Ehrlich and H.Krieg, J.Chem.Phys., 132, (2010), 154104 
   

----- Orbital basis set information -----
Your calculation utilizes the basis: 3-21G
   H-Ne       : J. S. Binkley, J. A. Pople and W. J. Hehre, J. Am. Chem. Soc. 102 939 (1980).
   Na-Ar      : M. S. Gordon, J. S. Binkley, J. A. Pople, W. J. Pietro and W.J. Hehre, J. Am. Chem. Soc. 104, 2797 (1983).
   K-Ca, Ga-Kr: K. D. Dobbs and W. J. Hehre, J. Comput. Chem. 7, 359 (1986).
   Sc-Zn      : K. D. Dobbs and W. J. Hehre, J. Comput. Chem. 8, 861 (1987).
   Y-Cd       : K. D. Dobbs and W. J. Hehre, J. Comput. Chem. 8, 880 (1987).

================================================================================
                                        WARNINGS
                       Please study these warnings very carefully!
================================================================================


INFO   : the flag for use of LIBINT has been found!

================================================================================
                                       INPUT FILE
================================================================================
NAME = teste_orca.2060.inp
|  1> # Single Point dipeptídeo alanina
|  2> 
|  3> ! PrintBasis B3LYP 3-21G D3ZERO LargePrint CPCM(Water) 
|  4> %scf print[p_mos] 1 end 
|  5> %scf print[p_overlap] 5 end 
|  6> %scf MaxIter 1 end 
|  7> %MaxCore 4000
|  8> #output
|  9> 
| 10> * xyz 0 1
| 11> H  4.30000 13.10000  8.60000
| 12> C  5.20000 13.60000  8.80000
| 13> H  4.90000 14.30000  9.60000
| 14> H  5.60000 14.20000  7.90000
| 15> C  6.10000 12.50000  9.40000
| 16> O  6.40000 12.50000 10.60000
| 17> N  6.60000 11.60000  8.50000
| 18> H  6.50000 11.60000  7.50000
| 19> C  7.30000 10.40000  9.10000
| 20> H  7.90000 10.70000 10.00000
| 21> C  6.20000  9.50000  9.60000
| 22> H  5.70000  9.10000  8.80000
| 23> H  6.60000  8.70000 10.20000
| 24> H  5.40000 10.00000 10.20000
| 25> C  8.40000  9.80000  8.20000
| 26> O  8.40000  9.90000  7.00000
| 27> N  9.30000  9.00000  8.80000
| 28> H  9.10000  9.00000  9.80000
| 29> C 10.50000  8.40000  8.30000
| 30> H 10.70000  7.70000  9.10000
| 31> H 10.40000  8.00000  7.30000
| 32> H 11.30000  9.10000  8.30000
| 33> *
| 34> 
| 35> 
| 36>                          ****END OF INPUT****
================================================================================

                       ****************************
                       * Single Point Calculation *
                       ****************************

---------------------------------
CARTESIAN COORDINATES (ANGSTROEM)
---------------------------------
  H      4.300000   13.100000    8.600000
  C      5.200000   13.600000    8.800000
  H      4.900000   14.300000    9.600000
  H      5.600000   14.200000    7.900000
  C      6.100000   12.500000    9.400000
  O      6.400000   12.500000   10.600000
  N      6.600000   11.600000    8.500000
  H      6.500000   11.600000    7.500000
  C      7.300000   10.400000    9.100000
  H      7.900000   10.700000   10.000000
  C      6.200000    9.500000    9.600000
  H      5.700000    9.100000    8.800000
  H      6.600000    8.700000   10.200000
  H      5.400000   10.000000   10.200000
  C      8.400000    9.800000    8.200000
  O      8.400000    9.900000    7.000000
  N      9.300000    9.000000    8.800000
  H      9.100000    9.000000    9.800000
  C     10.500000    8.400000    8.300000
  H     10.700000    7.700000    9.100000
  H     10.400000    8.000000    7.300000
  H     11.300000    9.100000    8.300000

----------------------------
CARTESIAN COORDINATES (A.U.)
----------------------------
  NO LB      ZA    FRAG     MASS         X           Y           Z
   0 H     1.0000    0     1.008    8.125822   24.755412   16.251645
   1 C     6.0000    0    12.011    9.826576   25.700275   16.629590
   2 H     1.0000    0     1.008    9.259658   27.023084   18.141371
   3 H     1.0000    0     1.008   10.582466   26.834111   14.928836
   4 C     6.0000    0    12.011   11.527329   23.621577   17.763426
   5 O     8.0000    0    15.999   12.094247   23.621577   20.031097
   6 N     7.0000    0    14.007   12.472192   21.920823   16.062672
   7 H     1.0000    0     1.008   12.283220   21.920823   14.172946
   8 C     6.0000    0    12.011   13.795001   19.653152   17.196508
   9 H     1.0000    0     1.008   14.928836   20.220070   18.897261
  10 C     6.0000    0    12.011   11.716302   17.952398   18.141371
  11 H     1.0000    0     1.008   10.771439   17.196508   16.629590
  12 H     1.0000    0     1.008   12.472192   16.440617   19.275207
  13 H     1.0000    0     1.008   10.204521   18.897261   19.275207
  14 C     6.0000    0    12.011   15.873700   18.519316   15.495754
  15 O     8.0000    0    15.999   15.873700   18.708289   13.228083
  16 N     7.0000    0    14.007   17.574453   17.007535   16.629590
  17 H     1.0000    0     1.008   17.196508   17.007535   18.519316
  18 C     6.0000    0    12.011   19.842124   15.873700   15.684727
  19 H     1.0000    0     1.008   20.220070   14.550891   17.196508
  20 H     1.0000    0     1.008   19.653152   15.117809   13.795001
  21 H     1.0000    0     1.008   21.353905   17.196508   15.684727

--------------------------------
INTERNAL COORDINATES (ANGSTROEM)
--------------------------------
 H      0   0   0     0.000000000000     0.00000000     0.00000000
 C      1   0   0     1.048808848170     0.00000000     0.00000000
 H      2   1   0     1.104536101719   101.95678516     0.00000000
 H      2   1   3     1.153256259467   113.38098690   242.69427154
 C      2   1   3     1.542724862054   103.58304268   113.37575673
 O      5   2   1     1.236931687685   121.25187497   250.94617391
 N      5   2   1     1.367479433118   115.25275046    75.12428530
 H      7   5   2     1.004987562112   128.20644352     4.07211367
 C      7   5   2     1.513274595042   115.47277647   189.20529761
 H      9   7   5     1.122497216032   110.68453863   321.39914365
 C      9   7   5     1.506651917332   105.51831734    76.21419421
 H     11   9   7     1.024695076596   109.28947959    69.79586621
 H     11   9   7     1.077032961427   110.94219821   190.05986817
 H     11   9   7     1.118033988750   115.68137110   312.69096681
 C      9   7   5     1.542724862054   114.01199102   208.37077384
 O     15   9   7     1.204159457879   123.30323243   333.69758716
 N     15   9   7     1.345362404707   116.62054038   161.73194277
 H     17  15   9     1.019803902719   107.82562757   356.05292434
 C     17  15   9     1.431782106328   130.85260355   186.97425414
 H     19  17  15     1.081665382639    99.66468228   192.30105803
 H     19  17  15     1.081665382639   113.59902275   318.12590057
 H     19  17  15     1.063014581273   110.78088677    80.21399195

---------------------------
INTERNAL COORDINATES (A.U.)
---------------------------
 H      0   0   0     0.000000000000     0.00000000     0.00000000
 C      1   0   0     1.981961489875     0.00000000     0.00000000
 H      2   1   0     2.087270737277   101.95678516     0.00000000
 H      2   1   3     2.179338492623   113.38098690   242.69427154
 C      2   1   3     2.915327489274   103.58304268   113.37575673
 O      5   2   1     2.337462136094   121.25187497   250.94617391
 N      5   2   1     2.584161622362   115.25275046    75.12428530
 H      7   5   2     1.899151260389   128.20644352     4.07211367
 C      7   5   2     2.859674550050   115.47277647   189.20529761
 H      9   7   5     2.121212324390   110.68453863   321.39914365
 C      9   7   5     2.847159502905   105.51831734    76.21419421
 H     11   9   7     1.936393065544   109.28947959    69.79586621
 H     11   9   7     2.035297334303   110.94219821   190.05986817
 H     11   9   7     2.112778047153   115.68137110   312.69096681
 C      9   7   5     2.915327489274   114.01199102   208.37077384
 O     15   9   7     2.275531596963   123.30323243   333.69758716
 N     15   9   7     2.542366495771   116.62054038   161.73194277
 H     17  15   9     1.927150086442   107.82562757   356.05292434
 C     17  15   9     2.705676064408   130.85260355   186.97425414
 H     19  17  15     2.044051341731    99.66468228   192.30105803
 H     19  17  15     2.044051341731   113.59902275   318.12590057
 H     19  17  15     2.008806434972   110.78088677    80.21399195

---------------------
BASIS SET INFORMATION
---------------------
There are 4 groups of distinct atoms

 Group   1 Type H   : 3s contracted to 2s pattern {21}
 Group   2 Type C   : 6s3p contracted to 3s2p pattern {321/21}
 Group   3 Type O   : 6s3p contracted to 3s2p pattern {321/21}
 Group   4 Type N   : 6s3p contracted to 3s2p pattern {321/21}

Atom   0H    basis set group =>   1
Atom   1C    basis set group =>   2
Atom   2H    basis set group =>   1
Atom   3H    basis set group =>   1
Atom   4C    basis set group =>   2
Atom   5O    basis set group =>   3
Atom   6N    basis set group =>   4
Atom   7H    basis set group =>   1
Atom   8C    basis set group =>   2
Atom   9H    basis set group =>   1
Atom  10C    basis set group =>   2
Atom  11H    basis set group =>   1
Atom  12H    basis set group =>   1
Atom  13H    basis set group =>   1
Atom  14C    basis set group =>   2
Atom  15O    basis set group =>   3
Atom  16N    basis set group =>   4
Atom  17H    basis set group =>   1
Atom  18C    basis set group =>   2
Atom  19H    basis set group =>   1
Atom  20H    basis set group =>   1
Atom  21H    basis set group =>   1

-------------------------
BASIS SET IN INPUT FORMAT
-------------------------

 # Basis set for element : H 
 NewGTO H 
 S 2 
   1       5.4471780000      0.1562849807
   2       0.8245470000      0.9046908881
 S 1 
   1       0.1831920000      1.0000000000
  end;

 # Basis set for element : C 
 NewGTO C 
 S 3 
   1     172.2560000000      0.0617669074
   2      25.9109000000      0.3587940429
   3       5.5333500000      0.7007130837
 S 2 
   1       3.6649800000     -0.3958951621
   2       0.7705450000      1.2158343557
 P 2 
   1       3.6649800000      0.2364599466
   2       0.7705450000      0.8606188057
 S 1 
   1       0.1958570000      1.0000000000
 P 1 
   1       0.1958570000      1.0000000000
  end;

 # Basis set for element : N 
 NewGTO N 
 S 3 
   1     242.7660000000      0.0598657005
   2      36.4851000000      0.3529550030
   3       7.8144900000      0.7065130060
 S 2 
   1       5.4252200000     -0.4133000774
   2       1.1491500000      1.2244172669
 P 2 
   1       5.4252200000      0.2379720162
   2       1.1491500000      0.8589530586
 S 1 
   1       0.2832050000      1.0000000000
 P 1 
   1       0.2832050000      1.0000000000
  end;

 # Basis set for element : O 
 NewGTO O 
 S 3 
   1     322.0370000000      0.0592393934
   2      48.4308000000      0.3514999608
   3      10.4206000000      0.7076579210
 S 2 
   1       7.4029400000     -0.4044535832
   2       1.5762000000      1.2215617614
 P 2 
   1       7.4029400000      0.2445861070
   2       1.5762000000      0.8539553735
 S 1 
   1       0.3736840000      1.0000000000
 P 1 
   1       0.3736840000      1.0000000000
  end;

------------------------------------------------------------------------------
                           ORCA GTO INTEGRAL CALCULATION
------------------------------------------------------------------------------

                         BASIS SET STATISTICS AND STARTUP INFO

 # of primitive gaussian shells          ...  126
 # of primitive gaussian functions       ...  186
 # of contracted shells                  ...   74
 # of contracted basis functions         ...  114
 Highest angular momentum                ...    1
 Maximum contraction depth               ...    3
 Integral package used                   ... LIBINT
 Integral threshhold            Thresh   ...  1.000e-10
 Primitive cut-off              TCut     ...  1.000e-11


------------------------------ INTEGRAL EVALUATION ----------------------------


 * One electron integrals 
 Pre-screening matrix                    ... done
 Shell pair data                         ... done (   0.001 sec)

-------------------------------------------------------------------------------
                                 ORCA SCF
-------------------------------------------------------------------------------

------------
SCF SETTINGS
------------
Hamiltonian:
 Density Functional     Method          .... DFT(GTOs)
 Exchange Functional    Exchange        .... B88
   X-Alpha parameter    XAlpha          ....  0.666667
   Becke's b parameter  XBeta           ....  0.004200
 Correlation Functional Correlation     .... LYP
 LDA part of GGA corr.  LDAOpt          .... VWN-5
 Gradients option       PostSCFGGA      .... off
 Hybrid DFT is turned on
   Fraction HF Exchange ScalHFX         ....  0.200000
   Scaling of DF-GGA-X  ScalDFX         ....  0.720000
   Scaling of DF-GGA-C  ScalDFC         ....  0.810000
   Scaling of DF-LDA-C  ScalLDAC        ....  1.000000
   Perturbative correction              ....  0.000000
   Density functional embedding theory  .... OFF
   NL short-range parameter             ....  4.800000


General Settings:
 Integral files         IntName         .... teste_orca.2060
 Hartree-Fock type      HFTyp           .... RHF
 Total Charge           Charge          ....    0
 Multiplicity           Mult            ....    1
 Number of Electrons    NEL             ....   78
 Basis Dimension        Dim             ....  114
 Nuclear Repulsion      ENuc            ....    546.1955368515 Eh

Convergence Acceleration:
 DIIS                   CNVDIIS         .... on
   Start iteration      DIISMaxIt       ....    12
   Startup error        DIISStart       ....  0.200000
   # of expansion vecs  DIISMaxEq       ....     5
   Bias factor          DIISBfac        ....   1.050
   Max. coefficient     DIISMaxC        ....  10.000
 Newton-Raphson         CNVNR           .... off
 SOSCF                  CNVSOSCF        .... on
   Start iteration      SOSCFMaxIt      ....   150
   Startup grad/error   SOSCFStart      ....  0.003300
 Level Shifting         CNVShift        .... on
   Level shift para.    LevelShift      ....    0.2500
   Turn off err/grad.   ShiftErr        ....    0.0010
 Zerner damping         CNVZerner       .... off
 Static damping         CNVDamp         .... on
   Fraction old density DampFac         ....    0.7000
   Max. Damping (<1)    DampMax         ....    0.9800
   Min. Damping (>=0)   DampMin         ....    0.0000
   Turn off err/grad.   DampErr         ....    0.1000
 Fernandez-Rico         CNVRico         .... off

SCF Procedure:
 Maximum # iterations   MaxIter         ....     1
 SCF integral mode      SCFMode         .... Direct
   Integral package                     .... LIBINT
 Reset frequency        DirectResetFreq ....    20
 Integral Threshold     Thresh          ....  1.000e-10 Eh
 Primitive CutOff       TCut            ....  1.000e-11 Eh

Convergence Tolerance:
 Convergence Check Mode ConvCheckMode   .... Total+1el-Energy
 Convergence forced     ConvForced      .... 0
 Energy Change          TolE            ....  1.000e-06 Eh
 1-El. energy change                    ....  1.000e-03 Eh
 Orbital Gradient       TolG            ....  5.000e-05
 Orbital Rotation angle TolX            ....  5.000e-05
 DIIS Error             TolErr          ....  1.000e-06


Diagonalization of the overlap matrix:
Smallest eigenvalue                        ... 9.727e-03
Time for diagonalization                   ...    0.029 sec
Threshold for overlap eigenvalues          ... 1.000e-08
Number of eigenvalues below threshold      ... 0
Time for construction of square roots      ...    0.002 sec
Total time needed                          ...    0.032 sec

--------------
OVERLAP MATRIX
--------------
                  0          1          2          3          4          5    
      0       1.000000   0.645899   0.023810   0.219681  -0.061518  -0.276833
      1       0.645899   1.000000   0.085479   0.419961  -0.045169  -0.203260
      2       0.023810   0.085479   1.000000   0.191447   0.000000  -0.000000
      3       0.219681   0.419961   0.191447   1.000000   0.000000   0.000000
      4      -0.061518  -0.045169   0.000000   0.000000   1.000000   0.000000
      5      -0.276833  -0.203260  -0.000000   0.000000   0.000000   1.000000
      6      -0.153796  -0.112922  -0.000000   0.000000   0.000000   0.000000
      7       0.356103   0.688896   0.180314   0.761357   0.000000   0.000000
      8      -0.097127  -0.111376   0.000000   0.000000   0.528959   0.000000
      9      -0.437070  -0.501194   0.000000   0.000000   0.000000   0.528959
     10      -0.242817  -0.278441   0.000000   0.000000   0.000000   0.000000
     11       0.013387   0.142534   0.017430   0.186163   0.205306  -0.076990
     12       0.142534   0.400170   0.079201   0.394739   0.169476  -0.063553
     13       0.005592   0.103707   0.013097   0.159866  -0.195824   0.087033
     14       0.103707   0.329937   0.073853   0.372946  -0.179799   0.079910
     15       0.000007   0.011618   0.000000   0.001592   0.001989   0.002983
     16       0.002635   0.082591   0.001592   0.053096   0.038392   0.057588
     17      -0.002577  -0.033922  -0.001989  -0.038392  -0.000315  -0.043872
     18      -0.005797  -0.076324  -0.002983  -0.057588  -0.043872  -0.036875
     19       0.001932   0.025441   0.003646   0.070386   0.053621   0.080432
     20       0.059560   0.238339   0.035890   0.208737   0.069495   0.104242
     21      -0.064816  -0.154133  -0.034926  -0.163414   0.082410  -0.084126
     22      -0.145836  -0.346799  -0.052388  -0.245120  -0.084126   0.012305
     23       0.048612   0.115600   0.064030   0.299592   0.102820   0.154231
     24       0.000000   0.000387   0.000000   0.000000   0.000000   0.000000
     25       0.000000   0.003162   0.000000   0.000025   0.000072   0.000048
     26      -0.000000  -0.002437   0.000000  -0.000050  -0.000129  -0.000094
     27      -0.000000  -0.002558   0.000000  -0.000033  -0.000094  -0.000051
     28       0.000000   0.000731   0.000000   0.000030   0.000086   0.000058
     29       0.000258   0.019385   0.000170   0.005412   0.007764   0.005176
     30      -0.000820  -0.029467  -0.000664  -0.015020  -0.018107  -0.014561
     31      -0.000861  -0.030940  -0.000443  -0.010014  -0.014561  -0.005973
     32       0.000246   0.008840   0.000406   0.009179   0.013347   0.008898
     33       0.000000   0.001070   0.000000   0.000000  -0.000000   0.000000
     34       0.000003   0.009146   0.000000   0.000068  -0.000029   0.000133
     35       0.000000   0.000398   0.000000   0.000023   0.000023   0.000046
     36      -0.000007  -0.009164  -0.000000  -0.000109   0.000046  -0.000181
     37       0.000005   0.005977   0.000000   0.000155  -0.000065   0.000305
     38       0.002539   0.048101   0.000669   0.011070  -0.002237   0.010442
     39       0.000381   0.003800   0.000386   0.004825   0.006424   0.004633
     40      -0.008773  -0.087401  -0.001802  -0.022515   0.004633  -0.014204
     41       0.005722   0.057001   0.002574   0.032165  -0.006619   0.030887
     42       0.000004   0.007382   0.000000   0.000030  -0.000048   0.000048
     43       0.007382   0.066212   0.001579   0.016093  -0.010383   0.010383
     44       0.000000   0.000005   0.000000   0.000000   0.000000   0.000000
     45       0.000000   0.000132   0.000000   0.000000   0.000000   0.000000
     46      -0.000000  -0.000031   0.000000  -0.000000   0.000000  -0.000000
     47      -0.000000  -0.000186   0.000000  -0.000000  -0.000000  -0.000000
     48       0.000000   0.000167   0.000000   0.000000   0.000000   0.000000
     49       0.000056   0.003728   0.000008   0.000229   0.000034   0.000239
     50      -0.000038  -0.001507  -0.000004  -0.000091   0.000122  -0.000096
     51      -0.000226  -0.009042  -0.000028  -0.000639  -0.000096  -0.000534
     52       0.000203   0.008138   0.000043   0.000974   0.000146   0.001022
     53       0.000000   0.000010   0.000000   0.000000   0.000000   0.000000
     54       0.000010   0.001154   0.000003   0.000096   0.000054   0.000122
     55       0.000000   0.000002   0.000000   0.000000   0.000000   0.000000
     56       0.000000   0.000077   0.000000   0.000000   0.000000   0.000000
     57      -0.000000  -0.000036   0.000000  -0.000000  -0.000000  -0.000000
     58      -0.000000  -0.000068   0.000000  -0.000000  -0.000000  -0.000000
     59       0.000000   0.000129   0.000000   0.000000   0.000000   0.000000
     60       0.000031   0.002632   0.000001   0.000029   0.000011   0.000014
     61      -0.000042  -0.002128  -0.000001  -0.000031   0.000005  -0.000015
     62      -0.000080  -0.004043  -0.000001  -0.000039  -0.000015  -0.000002
     63       0.000151   0.007660   0.000004   0.000159   0.000063   0.000078
     64       0.000000   0.000040   0.000000   0.000000   0.000000   0.000000
     65       0.000040   0.002773   0.000000   0.000016  -0.000000   0.000004
     66       0.000000   0.000000   0.000000   0.000000   0.000000   0.000000
     67       0.000000   0.000136   0.000000   0.000000   0.000000   0.000000
     68       0.000000   0.000482   0.000000   0.000000   0.000000   0.000000
     69       0.000482   0.012569   0.000013   0.000303   0.000201   0.000029
     70       0.000000   0.000000   0.000000   0.000000   0.000000   0.000000
     71       0.000000   0.000000   0.000000   0.000000   0.000000   0.000000
     72       0.000000   0.000000   0.000000   0.000000   0.000000   0.000000
     73       0.000000  -0.000001   0.000000   0.000000   0.000000   0.000000
     74       0.000000   0.000001   0.000000   0.000000   0.000000   0.000000
     75       0.000000   0.000081   0.000000   0.000001  -0.000000   0.000001
     76       0.000000   0.000026   0.000000   0.000001   0.000000   0.000001
     77      -0.000001  -0.000269  -0.000000  -0.000003   0.000001  -0.000005
     78       0.000000   0.000217   0.000000   0.000004  -0.000001   0.000006
     79       0.000000   0.000000   0.000000   0.000000   0.000000   0.000000
     80       0.000000   0.000000   0.000000   0.000000   0.000000   0.000000
     81       0.000000   0.000000   0.000000   0.000000   0.000000   0.000000
     82       0.000000  -0.000000   0.000000   0.000000   0.000000   0.000000
     83       0.000000   0.000000   0.000000   0.000000   0.000000   0.000000
     84       0.000000   0.000002   0.000000   0.000000  -0.000000   0.000000
     85       0.000000   0.000003   0.000000   0.000000  -0.000000   0.000000
     86       0.000000  -0.000006   0.000000  -0.000000   0.000000  -0.000000
     87       0.000000   0.000005   0.000000   0.000000  -0.000000   0.000000
     88       0.000000   0.000000   0.000000   0.000000   0.000000   0.000000
     89       0.000000   0.000000   0.000000   0.000000   0.000000   0.000000
     90       0.000000  -0.000000   0.000000   0.000000   0.000000   0.000000
     91       0.000000  -0.000000   0.000000   0.000000   0.000000   0.000000
     92       0.000000   0.000000   0.000000   0.000000   0.000000   0.000000
     93       0.000000   0.000000   0.000000   0.000000   0.000000   0.000000
     94       0.000000  -0.000000   0.000000   0.000000   0.000000   0.000000
     95       0.000000  -0.000000   0.000000   0.000000   0.000000   0.000000
     96       0.000000   0.000000   0.000000   0.000000   0.000000   0.000000
     97       0.000000   0.000000   0.000000   0.000000   0.000000   0.000000
     98       0.000000   0.000001   0.000000   0.000000   0.000000   0.000000
     99       0.000000   0.000000   0.000000   0.000000   0.000000   0.000000
    100       0.000000   0.000000   0.000000   0.000000   0.000000   0.000000
    101       0.000000   0.000000   0.000000   0.000000   0.000000   0.000000
    102       0.000000   0.000000   0.000000   0.000000   0.000000   0.000000
    103       0.000000   0.000000   0.000000   0.000000   0.000000   0.000000
    104       0.000000   0.000000   0.000000   0.000000   0.000000   0.000000
    105       0.000000   0.000000   0.000000   0.000000   0.000000   0.000000
    106       0.000000  -0.000000   0.000000   0.000000   0.000000   0.000000
    107       0.000000   0.000000   0.000000   0.000000   0.000000   0.000000
    108       0.000000   0.000000   0.000000   0.000000   0.000000   0.000000
    109       0.000000   0.000000   0.000000   0.000000   0.000000   0.000000
    110       0.000000   0.000000   0.000000   0.000000   0.000000   0.000000
    111       0.000000   0.000000   0.000000   0.000000   0.000000   0.000000
    112       0.000000   0.000000   0.000000   0.000000   0.000000   0.000000
    113       0.000000   0.000000   0.000000   0.000000   0.000000   0.000000
                  6          7          8          9         10         11    
      0      -0.153796   0.356103  -0.097127  -0.437070  -0.242817   0.013387
      1      -0.112922   0.688896  -0.111376  -0.501194  -0.278441   0.142534
      2      -0.000000   0.180314   0.000000   0.000000   0.000000   0.017430
      3       0.000000   0.761357   0.000000   0.000000   0.000000   0.186163
      4       0.000000   0.000000   0.528959   0.000000   0.000000   0.205306
      5       0.000000   0.000000   0.000000   0.528959   0.000000  -0.076990
      6       1.000000   0.000000   0.000000   0.000000   0.528959   0.179643
      7       0.000000   1.000000   0.000000   0.000000   0.000000   0.332551
      8       0.000000   0.000000   1.000000   0.000000   0.000000   0.362771
      9       0.000000   0.000000   0.000000   1.000000   0.000000  -0.136039
     10       0.528959   0.000000   0.000000   0.000000   1.000000   0.317424
     11       0.179643   0.332551   0.362771  -0.136039   0.317424   1.000000
     12       0.148291   0.661512   0.427796  -0.160424   0.374322   0.645899
     13       0.130549   0.312334  -0.383268   0.170341   0.255512   0.005592
     14       0.119866   0.637367  -0.463705   0.206091   0.309136   0.103707
     15      -0.003646   0.035890   0.034926   0.052388  -0.064030   0.000002
     16      -0.070386   0.208737   0.163414   0.245120  -0.299592   0.001333
     17       0.053621  -0.069495   0.082410  -0.084126   0.102820   0.000325
     18       0.080432  -0.104242  -0.084126   0.012305   0.154231  -0.001949
     19      -0.069373   0.127407   0.102820   0.154231  -0.050010   0.002924
     20      -0.127407   0.435044   0.218300   0.327450  -0.400216   0.045331
     21       0.102820  -0.218300   0.325504  -0.164310   0.200823   0.012329
     22       0.154231  -0.327450  -0.164310   0.188579   0.301235  -0.073973
     23      -0.050010   0.400216   0.200823   0.301235   0.066868   0.110960
     24      -0.000000   0.002005   0.005937   0.003958  -0.003628   0.000000
     25      -0.000044   0.014239   0.037799   0.025199  -0.023099   0.000004
     26       0.000086  -0.010633  -0.021508  -0.019048   0.017461  -0.000004
     27       0.000058  -0.007089  -0.019048  -0.005635   0.011640  -0.000006
     28      -0.000041   0.006498   0.017461   0.011640  -0.003607   0.000007
     29      -0.004745   0.062048   0.122569   0.081713  -0.074903   0.002098
     30       0.013347  -0.088736  -0.116340  -0.116858   0.107120  -0.003345
     31       0.008898  -0.059157  -0.116858  -0.018959   0.071413  -0.005018
     32      -0.004423   0.054227   0.107120   0.071413  -0.006516   0.006022
     33      -0.000000   0.002258  -0.001108   0.005172  -0.007389   0.000000
     34      -0.000190   0.017976  -0.007621   0.035563  -0.050804   0.000000
     35      -0.000065   0.002506   0.008909   0.005035  -0.007192   0.000000
     36       0.000305  -0.011694   0.005035  -0.013507   0.033564  -0.000000
     37      -0.000403   0.016705  -0.007192   0.033564  -0.037961   0.000000
     38      -0.014917   0.079909  -0.023704   0.110620  -0.158028   0.000140
     39      -0.006619   0.019713   0.072722   0.027289  -0.038984   0.000231
     40       0.030887  -0.091992   0.027289  -0.048777   0.181924  -0.000357
     41      -0.036707   0.131418  -0.038984   0.181924  -0.181322   0.000567
     42      -0.000074   0.010000  -0.017652   0.017652  -0.027157   0.000000
     43      -0.015973   0.082459  -0.086654   0.086654  -0.133314   0.000301
     44       0.000000   0.000008   0.000004   0.000028  -0.000043   0.000000
     45      -0.000000   0.000229   0.000091   0.000639  -0.000974   0.000000
     46       0.000000  -0.000034   0.000122  -0.000096   0.000146   0.000000
     47       0.000000  -0.000239  -0.000096  -0.000534   0.001022   0.000000
     48      -0.000000   0.000364   0.000146   0.001022  -0.001421   0.000000
     49      -0.000364   0.005772   0.001448   0.010137  -0.015447   0.000004
     50       0.000146  -0.001448   0.005409  -0.002543   0.003876   0.000003
     51       0.001022  -0.010137  -0.002543  -0.012032   0.027130  -0.000013
     52      -0.001421   0.015447   0.003876   0.027130  -0.035568   0.000021
     53      -0.000000   0.000040   0.000064   0.000145  -0.000155   0.000000
     54      -0.000131   0.003044   0.002953   0.006644  -0.007136   0.000004
     55       0.000000   0.000001   0.000001   0.000001  -0.000004   0.000000
     56      -0.000000   0.000029   0.000031   0.000039  -0.000159   0.000000
     57       0.000000  -0.000011   0.000005  -0.000015   0.000063   0.000000
     58       0.000000  -0.000014  -0.000015  -0.000002   0.000078   0.000000
     59      -0.000000   0.000059   0.000063   0.000078  -0.000304   0.000000
     60      -0.000059   0.001577   0.001055   0.001319  -0.005408   0.000001
     61       0.000063  -0.001055   0.000871  -0.000882   0.003618   0.000000
     62       0.000078  -0.001319  -0.000882   0.000474   0.004523  -0.000001
     63      -0.000304   0.005408   0.003618   0.004523  -0.016966   0.000004
     64       0.000000   0.000006  -0.000000   0.000004  -0.000036   0.000000
     65      -0.000034   0.000978   0.000000   0.000395  -0.003556   0.000000
     66       0.000000   0.000000   0.000000   0.000000  -0.000001   0.000000
     67      -0.000001   0.000079   0.000090   0.000090  -0.000314   0.000000
     68      -0.000000   0.000136   0.000258   0.000037  -0.000663   0.000000
     69      -0.000516   0.006360   0.007198   0.001028  -0.018509   0.000022
     70       0.000000   0.000000  -0.000000   0.000000  -0.000000   0.000000
     71       0.000000   0.000001  -0.000001   0.000003  -0.000004   0.000000
     72       0.000000   0.000000   0.000000   0.000001  -0.000001   0.000000
     73       0.000000  -0.000001   0.000001  -0.000005   0.000006   0.000000
     74       0.000000   0.000001  -0.000001   0.000006  -0.000007   0.000000
     75      -0.000001   0.000157  -0.000079   0.000421  -0.000500   0.000000
     76      -0.000001   0.000079   0.000118   0.000211  -0.000251   0.000000
     77       0.000006  -0.000421   0.000211  -0.000970   0.001339  -0.000000
     78      -0.000007   0.000500  -0.000251   0.001339  -0.001432   0.000000
     79       0.000000   0.000000  -0.000000   0.000000  -0.000000   0.000000
     80       0.000000   0.000000  -0.000000   0.000000  -0.000000   0.000000
     81       0.000000   0.000000  -0.000000   0.000000  -0.000000   0.000000
     82       0.000000  -0.000000   0.000000  -0.000000   0.000000   0.000000
     83       0.000000   0.000000  -0.000000   0.000000  -0.000000   0.000000
     84      -0.000000   0.000004  -0.000007   0.000013  -0.000014   0.000000
     85      -0.000000   0.000005  -0.000007   0.000018  -0.000021   0.000000
     86       0.000000  -0.000009   0.000018  -0.000028   0.000037   0.000000
     87      -0.000000   0.000010  -0.000021   0.000037  -0.000039   0.000000
     88       0.000000   0.000000   0.000000   0.000000   0.000000   0.000000
     89       0.000000   0.000000   0.000000   0.000000  -0.000000   0.000000
     90       0.000000   0.000000   0.000000   0.000000   0.000000   0.000000
     91       0.000000  -0.000000   0.000000  -0.000000   0.000000   0.000000
     92       0.000000   0.000000   0.000000   0.000000  -0.000000   0.000000
     93       0.000000   0.000000   0.000000   0.000001  -0.000001   0.000000
     94       0.000000   0.000000   0.000000   0.000000   0.000000   0.000000
     95       0.000000  -0.000000   0.000000  -0.000002   0.000002   0.000000
     96       0.000000   0.000001   0.000000   0.000002  -0.000002   0.000000
     97       0.000000   0.000000   0.000000   0.000000  -0.000000   0.000000
     98      -0.000000   0.000003   0.000003   0.000010  -0.000012   0.000000
     99       0.000000   0.000000   0.000000   0.000000   0.000000   0.000000
    100       0.000000   0.000000   0.000000   0.000000   0.000000   0.000000
    101       0.000000   0.000000   0.000000   0.000000   0.000000   0.000000
    102       0.000000   0.000000   0.000000   0.000000   0.000000   0.000000
    103       0.000000   0.000000   0.000000   0.000000   0.000000   0.000000
    104       0.000000   0.000000  -0.000000   0.000000  -0.000000   0.000000
    105       0.000000   0.000000   0.000000   0.000000  -0.000000   0.000000
    106       0.000000  -0.000000   0.000000  -0.000000   0.000000   0.000000
    107       0.000000   0.000000  -0.000000   0.000000  -0.000000   0.000000
    108       0.000000   0.000000   0.000000   0.000000   0.000000   0.000000
    109       0.000000   0.000000   0.000000   0.000000  -0.000000   0.000000
    110       0.000000   0.000000   0.000000   0.000000   0.000000   0.000000
    111       0.000000   0.000000  -0.000000   0.000000  -0.000000   0.000000
    112       0.000000   0.000000   0.000000   0.000000   0.000000   0.000000
    113       0.000000   0.000000  -0.000000   0.000000  -0.000000   0.000000
                 12         13         14         15         16         17    
      0       0.142534   0.005592   0.103707   0.000007   0.002635  -0.002577
      1       0.400170   0.103707   0.329937   0.011618   0.082591  -0.033922
      2       0.079201   0.013097   0.073853   0.000000   0.001592  -0.001989
      3       0.394739   0.159866   0.372946   0.001592   0.053096  -0.038392
      4       0.169476  -0.195824  -0.179799   0.001989   0.038392  -0.000315
      5      -0.063553   0.087033   0.079910   0.002983   0.057588  -0.043872
      6       0.148291   0.130549   0.119866  -0.003646  -0.070386   0.053621
      7       0.661512   0.312334   0.637367   0.035890   0.208737  -0.069495
      8       0.427796  -0.383268  -0.463705   0.034926   0.163414   0.082410
      9      -0.160424   0.170341   0.206091   0.052388   0.245120  -0.084126
     10       0.374322   0.255512   0.309136  -0.064030  -0.299592   0.102820
     11       0.645899   0.005592   0.103707   0.000002   0.001333   0.000325
     12       1.000000   0.103707   0.329937   0.008563   0.064354   0.006569
     13       0.103707   1.000000   0.645899   0.000000   0.000514  -0.000938
     14       0.329937   0.645899   1.000000   0.005594   0.045414  -0.034499
     15       0.008563   0.000000   0.005594   1.000000   0.191447   0.000000
     16       0.064354   0.000514   0.045414   0.191447   1.000000   0.000000
     17       0.006569  -0.000938  -0.034499   0.000000   0.000000   1.000000
     18      -0.039414  -0.000313  -0.011500   0.000000   0.000000   0.000000
     19       0.059122   0.001063   0.039098  -0.000000   0.000000   0.000000
     20       0.202642   0.030972   0.161574   0.180314   0.761357   0.000000
     21       0.032762  -0.063151  -0.195918  -0.000000   0.000000   0.528959
     22      -0.196572  -0.021050  -0.065306   0.000000   0.000000   0.000000
     23       0.294858   0.071571   0.222040  -0.000000   0.000000   0.000000
     24       0.001680   0.000000   0.000103   0.000000   0.007022   0.018559
     25       0.011907   0.000000   0.000959   0.000838   0.074083   0.140575
     26      -0.004654  -0.000000  -0.000986  -0.002625  -0.105055  -0.172222
     27      -0.006980  -0.000000  -0.000292  -0.000656  -0.026264  -0.052748
     28       0.008377   0.000000   0.000621  -0.000000  -0.000000  -0.000000
     29       0.052742   0.000039   0.007882   0.040911   0.251871   0.270146
     30      -0.040085  -0.000168  -0.016175  -0.107039  -0.452475  -0.318014
     31      -0.060128  -0.000050  -0.004793  -0.026760  -0.113119  -0.128224
     32       0.072153   0.000106   0.010184  -0.000000  -0.000000  -0.000000
     33       0.000091   0.000000   0.000743   0.000000   0.003871  -0.007511
     34       0.001067   0.000001   0.006651   0.001053   0.062315  -0.079526
     35       0.000499  -0.000001  -0.001731   0.002256   0.067706  -0.057861
     36      -0.000770  -0.000001  -0.002885  -0.001253  -0.037615   0.050767
     37       0.001224   0.000003   0.007502   0.002256   0.067706  -0.091381
     38       0.010464   0.001651   0.038355   0.038151   0.229252  -0.151706
     39       0.009093  -0.001488  -0.018180   0.066072   0.294410  -0.035720
     40      -0.014053  -0.002479  -0.030301  -0.036707  -0.163561   0.112963
     41       0.022319   0.006446   0.078782   0.066072   0.294410  -0.203334
     42       0.000301   0.000009   0.010030   0.000003   0.001626  -0.003768
     43       0.009425   0.010030   0.079783   0.009360   0.069213  -0.067232
     44       0.000000   0.000000   0.000001   0.000000   0.000000  -0.000000
     45       0.000011   0.000000   0.000041   0.000000   0.000416  -0.000147
     46       0.000003   0.000000  -0.000023   0.000000   0.000147   0.000157
     47      -0.000012   0.000000  -0.000032  -0.000001  -0.000587   0.000208
     48       0.000020   0.000000   0.000072   0.000001   0.001028  -0.000363
     49       0.000766   0.000016   0.001755   0.003210   0.029693  -0.004705
     50       0.000310  -0.000026  -0.001702   0.001562   0.011710   0.016858
     51      -0.001487  -0.000036  -0.002411  -0.006246  -0.046840   0.007574
     52       0.002416   0.000081   0.005390   0.010931   0.081970  -0.013254
     53       0.000004   0.000000   0.000005   0.000000   0.000065   0.000048
     54       0.000721   0.000005   0.000762   0.002226   0.021331   0.006384
     55       0.000000   0.000000   0.000000   0.000000   0.000000   0.000000
     56       0.000002   0.000000   0.000001   0.000000   0.000006   0.000001
     57       0.000000   0.000000  -0.000001  -0.000000  -0.000001   0.000003
     58      -0.000001   0.000000  -0.000000  -0.000000  -0.000001  -0.000000
     59       0.000004   0.000000   0.000003   0.000000   0.000020   0.000005
     60       0.000234   0.000000   0.000190   0.000390   0.005352   0.000549
     61       0.000000  -0.000001  -0.000262  -0.000126  -0.001413   0.003134
     62      -0.000246  -0.000000  -0.000092  -0.000063  -0.000707  -0.000074
     63       0.000908   0.000002   0.000723   0.001896   0.021198   0.002205
     64       0.000000   0.000000   0.000000   0.000000   0.000000  -0.000000
     65       0.000095   0.000000   0.000154   0.000080   0.001375  -0.000396
     66       0.000000   0.000000   0.000000   0.000000   0.000000   0.000000
     67       0.000012   0.000000   0.000006   0.000010   0.000250   0.000094
     68       0.000022   0.000000   0.000003   0.000000   0.000030   0.000029
     69       0.001935   0.000003   0.000546   0.001579   0.016093   0.006389
     70       0.000000   0.000000   0.000000   0.000000   0.000000   0.000000
     71       0.000000   0.000000   0.000000   0.000000   0.000000  -0.000000
     72       0.000000   0.000000  -0.000000   0.000000   0.000000  -0.000000
     73      -0.000000   0.000000  -0.000001   0.000000  -0.000000   0.000000
     74       0.000000   0.000000   0.000001   0.000000   0.000000  -0.000000
     75       0.000009   0.000000   0.000098   0.000013   0.000342  -0.000204
     76       0.000010  -0.000000  -0.000024   0.000026   0.000544  -0.000124
     77      -0.000025  -0.000000  -0.000223  -0.000050  -0.001043   0.000628
     78       0.000032   0.000001   0.000350   0.000059   0.001225  -0.000737
     79       0.000000   0.000000   0.000000   0.000000   0.000000   0.000000
     80       0.000000   0.000000   0.000000   0.000000   0.000000   0.000000
     81       0.000000   0.000000   0.000000   0.000000   0.000000   0.000000
     82      -0.000000   0.000000  -0.000000   0.000000   0.000000   0.000000
     83       0.000000   0.000000   0.000000   0.000000   0.000000   0.000000
     84       0.000000   0.000000   0.000006   0.000000   0.000000  -0.000000
     85       0.000000   0.000000   0.000004   0.000000   0.000000  -0.000001
     86      -0.000000  -0.000000  -0.000013  -0.000000  -0.000000   0.000001
     87       0.000000   0.000000   0.000020   0.000000   0.000000  -0.000001
     88       0.000000   0.000000   0.000000   0.000000   0.000000   0.000000
     89       0.000000   0.000000   0.000000   0.000000   0.000000   0.000000
     90       0.000000   0.000000  -0.000000   0.000000   0.000000   0.000000
     91       0.000000   0.000000  -0.000000   0.000000   0.000000   0.000000
     92       0.000000   0.000000   0.000000   0.000000   0.000000   0.000000
     93       0.000000   0.000000   0.000000   0.000000   0.000000  -0.000000
     94       0.000000   0.000000  -0.000000   0.000000   0.000000   0.000000
     95      -0.000000   0.000000  -0.000000  -0.000000  -0.000000   0.000000
     96       0.000000   0.000000   0.000000   0.000000   0.000000  -0.000000
     97       0.000000   0.000000   0.000000   0.000000   0.000000   0.000000
     98       0.000000   0.000000   0.000001   0.000000   0.000010   0.000002
     99       0.000000   0.000000   0.000000   0.000000   0.000000   0.000000
    100       0.000000   0.000000   0.000000   0.000000   0.000000   0.000000
    101       0.000000   0.000000   0.000000   0.000000   0.000000   0.000000
    102       0.000000   0.000000   0.000000   0.000000   0.000000   0.000000
    103       0.000000   0.000000   0.000000   0.000000   0.000000   0.000000
    104       0.000000   0.000000   0.000000   0.000000   0.000000  -0.000000
    105       0.000000   0.000000  -0.000000   0.000000   0.000000  -0.000000
    106      -0.000000   0.000000  -0.000000   0.000000  -0.000000   0.000000
    107       0.000000   0.000000   0.000000   0.000000   0.000000  -0.000000
    108       0.000000   0.000000   0.000000   0.000000   0.000000   0.000000
    109       0.000000   0.000000   0.000000   0.000000   0.000000  -0.000000
    110       0.000000   0.000000   0.000000   0.000000   0.000000   0.000000
    111       0.000000   0.000000   0.000000   0.000000   0.000000  -0.000000
    112       0.000000   0.000000   0.000000   0.000000   0.000000   0.000000
    113       0.000000   0.000000   0.000000   0.000000   0.000000  -0.000000
                 18         19         20         21         22         23    
      0      -0.005797   0.001932   0.059560  -0.064816  -0.145836   0.048612
      1      -0.076324   0.025441   0.238339  -0.154133  -0.346799   0.115600
      2      -0.002983   0.003646   0.035890  -0.034926  -0.052388   0.064030
      3      -0.057588   0.070386   0.208737  -0.163414  -0.245120   0.299592
      4      -0.043872   0.053621   0.069495   0.082410  -0.084126   0.102820
      5      -0.036875   0.080432   0.104242  -0.084126   0.012305   0.154231
      6       0.080432  -0.069373  -0.127407   0.102820   0.154231  -0.050010
      7      -0.104242   0.127407   0.435044  -0.218300  -0.327450   0.400216
      8      -0.084126   0.102820   0.218300   0.325504  -0.164310   0.200823
      9       0.012305   0.154231   0.327450  -0.164310   0.188579   0.301235
     10       0.154231  -0.050010  -0.400216   0.200823   0.301235   0.066868
     11      -0.001949   0.002924   0.045331   0.012329  -0.073973   0.110960
     12      -0.039414   0.059122   0.202642   0.032762  -0.196572   0.294858
     13      -0.000313   0.001063   0.030972  -0.063151  -0.021050   0.071571
     14      -0.011500   0.039098   0.161574  -0.195918  -0.065306   0.222040
     15       0.000000  -0.000000   0.180314  -0.000000   0.000000  -0.000000
     16       0.000000   0.000000   0.761357   0.000000   0.000000   0.000000
     17       0.000000   0.000000   0.000000   0.528959   0.000000   0.000000
     18       1.000000   0.000000   0.000000   0.000000   0.528959   0.000000
     19       0.000000   1.000000   0.000000   0.000000   0.000000   0.528959
     20       0.000000   0.000000   1.000000   0.000000   0.000000   0.000000
     21       0.000000   0.000000   0.000000   1.000000   0.000000   0.000000
     22       0.528959   0.000000   0.000000   0.000000   1.000000   0.000000
     23       0.000000   0.528959   0.000000   0.000000   0.000000   1.000000
     24       0.004640   0.000000   0.040244   0.079451   0.019863   0.000000
     25       0.035144  -0.000000   0.208728   0.368316   0.092079   0.000000
     26      -0.052748   0.000000  -0.107915  -0.085963  -0.048373   0.000000
     27       0.025584   0.000000  -0.026979  -0.048373   0.095437   0.000000
     28      -0.000000   0.038771  -0.000000  -0.000000  -0.000000   0.107530
     29       0.067537  -0.000000   0.458845   0.604262   0.151065  -0.000000
     30      -0.128224   0.000000  -0.437464  -0.140199  -0.144026   0.000000
     31       0.162824   0.000000  -0.109366  -0.144026   0.399899   0.000000
     32      -0.000000   0.194880  -0.000000  -0.000000  -0.000000   0.435906
     33       0.004173  -0.007511   0.039427  -0.058062   0.032257  -0.058062
     34       0.044181  -0.079526   0.211333  -0.267475   0.148597  -0.267475
     35       0.050767  -0.091381   0.092526   0.003237   0.066495  -0.119691
     36       0.005316   0.050767  -0.051403   0.066495   0.085986   0.066495
     37       0.050767  -0.057861   0.092526  -0.119691   0.066495   0.003237
     38       0.084281  -0.151706   0.449981  -0.400446   0.222470  -0.400446
     39       0.112963  -0.203334   0.333015   0.146082   0.164642  -0.296356
     40       0.104857   0.112963  -0.185008   0.164642   0.350970   0.164642
     41       0.112963  -0.035720   0.333015  -0.296356   0.164642   0.146082
     42       0.000793  -0.001785   0.049088  -0.126842   0.026704  -0.060083
     43       0.014154  -0.031847   0.212463  -0.326321   0.068699  -0.154573
     44       0.000001  -0.000001   0.003210  -0.001562   0.006246  -0.010931
     45       0.000587  -0.001028   0.029693  -0.011710   0.046840  -0.081970
     46       0.000208  -0.000363   0.004705   0.016858   0.007574  -0.013254
     47      -0.000621   0.001453  -0.018819   0.007574  -0.011544   0.053018
     48       0.001453  -0.002334   0.032933  -0.013254   0.053018  -0.074030
     49       0.018819  -0.032933   0.125272  -0.031430   0.125719  -0.220009
     50       0.007574  -0.013254   0.031430   0.117386   0.031542  -0.055199
     51      -0.011544   0.053018  -0.125719   0.031542  -0.000897   0.220795
     52       0.053018  -0.074030   0.220009  -0.055199   0.220795  -0.261120
     53       0.000143  -0.000143   0.013589   0.011074   0.033221  -0.033221
     54       0.019153  -0.019153   0.098971   0.048003   0.144010  -0.144010
     55       0.000000  -0.000000   0.000390   0.000126   0.000063  -0.001896
     56       0.000001  -0.000020   0.005352   0.001413   0.000707  -0.021198
     57      -0.000000   0.000005  -0.000549   0.003134  -0.000074   0.002205
     58       0.000003   0.000002  -0.000274  -0.000074   0.003244   0.001103
     59       0.000002  -0.000069   0.008232   0.002205   0.001103  -0.029795
     60       0.000274  -0.008232   0.042220   0.007062   0.003531  -0.105927
     61      -0.000074   0.002205  -0.007062   0.041039  -0.000591   0.017718
     62       0.003244   0.001103  -0.003531  -0.000591   0.041924   0.008859
     63       0.001103  -0.029795   0.105927   0.017718   0.008859  -0.223544
     64      -0.000000  -0.000000   0.000695  -0.000565  -0.000377  -0.003204
     65      -0.000264  -0.002242   0.016837  -0.008166  -0.005444  -0.046276
     66       0.000000  -0.000000   0.000110   0.000120   0.000075  -0.000568
     67       0.000059  -0.000447   0.005613   0.003630   0.002269  -0.017241
     68      -0.000026  -0.000092   0.010000   0.010863  -0.009505  -0.033946
     69      -0.005591  -0.019967   0.082459   0.053326  -0.046660  -0.166643
     70       0.000000   0.000000   0.000013  -0.000026   0.000050  -0.000059
     71       0.000000  -0.000000   0.000342  -0.000544   0.001043  -0.001225
     72       0.000000  -0.000000   0.000204  -0.000124   0.000628  -0.000737
     73      -0.000000   0.000000  -0.000391   0.000628  -0.001000   0.001412
     74       0.000000  -0.000000   0.000459  -0.000737   0.001412  -0.001454
     75       0.000391  -0.000459   0.007425  -0.007451   0.014282  -0.016766
     76       0.000628  -0.000737   0.007451  -0.000053   0.014333  -0.016826
     77      -0.001000   0.001412  -0.014282   0.014333  -0.020047   0.032249
     78       0.001412  -0.001454   0.016766  -0.016826   0.032249  -0.030433
     79       0.000000   0.000000   0.000001  -0.000002   0.000002  -0.000002
     80       0.000000   0.000000   0.000009  -0.000032   0.000031  -0.000035
     81       0.000000   0.000000   0.000008  -0.000026   0.000029  -0.000032
     82       0.000000   0.000000  -0.000008   0.000029  -0.000023   0.000031
     83       0.000000   0.000000   0.000009  -0.000032   0.000031  -0.000031
     84       0.000000  -0.000000   0.000261  -0.000688   0.000660  -0.000746
     85       0.000001  -0.000001   0.000498  -0.001064   0.001258  -0.001422
     86      -0.000001   0.000001  -0.000477   0.001258  -0.000957   0.001362
     87       0.000001  -0.000001   0.000540  -0.001422   0.001362  -0.001292
     88       0.000000   0.000000   0.000000  -0.000000   0.000000  -0.000000
     89       0.000000   0.000000   0.000001  -0.000001   0.000004  -0.000004
     90       0.000000   0.000000   0.000000   0.000000   0.000001  -0.000001
     91       0.000000   0.000000  -0.000001   0.000001  -0.000005   0.000006
     92       0.000000   0.000000   0.000001  -0.000001   0.000006  -0.000006
     93       0.000000  -0.000000   0.000077  -0.000046   0.000243  -0.000266
     94       0.000000  -0.000000   0.000038   0.000053   0.000120  -0.000131
     95      -0.000000   0.000000  -0.000202   0.000120  -0.000565   0.000700
     96       0.000000  -0.000001   0.000221  -0.000131   0.000700  -0.000690
     97       0.000000   0.000000   0.000004   0.000002   0.000014  -0.000017
     98       0.000014  -0.000016   0.000719   0.000232   0.001743  -0.002034
     99       0.000000   0.000000   0.000000   0.000000   0.000000   0.000000
    100       0.000000   0.000000   0.000000  -0.000000   0.000000  -0.000000
    101       0.000000   0.000000   0.000000  -0.000000   0.000000  -0.000000
    102       0.000000   0.000000  -0.000000   0.000000  -0.000000   0.000000
    103       0.000000   0.000000   0.000000  -0.000000   0.000000  -0.000000
    104       0.000000  -0.000000   0.000002  -0.000002   0.000008  -0.000007
    105       0.000000  -0.000000   0.000002   0.000000   0.000007  -0.000007
    106      -0.000000   0.000000  -0.000008   0.000007  -0.000026   0.000027
    107       0.000000  -0.000000   0.000007  -0.000007   0.000027  -0.000023
    108       0.000000   0.000000   0.000000   0.000000   0.000000   0.000000
    109       0.000000  -0.000000   0.000000  -0.000000   0.000001  -0.000001
    110       0.000000   0.000000   0.000000  -0.000000   0.000000  -0.000000
    111       0.000000  -0.000000   0.000000  -0.000001   0.000002  -0.000002
    112       0.000000   0.000000   0.000000  -0.000000   0.000000  -0.000000
    113       0.000000  -0.000000   0.000001  -0.000001   0.000006  -0.000004
                 24         25         26         27         28         29    
      0       0.000000   0.000000  -0.000000  -0.000000   0.000000   0.000258
      1       0.000387   0.003162  -0.002437  -0.002558   0.000731   0.019385
      2       0.000000   0.000000   0.000000   0.000000   0.000000   0.000170
      3       0.000000   0.000025  -0.000050  -0.000033   0.000030   0.005412
      4       0.000000   0.000072  -0.000129  -0.000094   0.000086   0.007764
      5       0.000000   0.000048  -0.000094  -0.000051   0.000058   0.005176
      6      -0.000000  -0.000044   0.000086   0.000058  -0.000041  -0.004745
      7       0.002005   0.014239  -0.010633  -0.007089   0.006498   0.062048
      8       0.005937   0.037799  -0.021508  -0.019048   0.017461   0.122569
      9       0.003958   0.025199  -0.019048  -0.005635   0.011640   0.081713
     10      -0.003628  -0.023099   0.017461   0.011640  -0.003607  -0.074903
     11       0.000000   0.000004  -0.000004  -0.000006   0.000007   0.002098
     12       0.001680   0.011907  -0.004654  -0.006980   0.008377   0.052742
     13       0.000000   0.000000  -0.000000  -0.000000   0.000000   0.000039
     14       0.000103   0.000959  -0.000986  -0.000292   0.000621   0.007882
     15       0.000000   0.000838  -0.002625  -0.000656  -0.000000   0.040911
     16       0.007022   0.074083  -0.105055  -0.026264  -0.000000   0.251871
     17       0.018559   0.140575  -0.172222  -0.052748  -0.000000   0.270146
     18       0.004640   0.035144  -0.052748   0.025584  -0.000000   0.067537
     19       0.000000  -0.000000   0.000000   0.000000   0.038771  -0.000000
     20       0.040244   0.208728  -0.107915  -0.026979  -0.000000   0.458845
     21       0.079451   0.368316  -0.085963  -0.048373  -0.000000   0.604262
     22       0.019863   0.092079  -0.048373   0.095437  -0.000000   0.151065
     23       0.000000   0.000000   0.000000   0.000000   0.107530  -0.000000
     24       1.000000   0.209215  -0.000000  -0.000000  -0.000000   0.183087
     25       0.209215   1.000000  -0.000000  -0.000000   0.000000   0.740016
     26      -0.000000  -0.000000   1.000000   0.000000   0.000000   0.000000
     27      -0.000000  -0.000000   0.000000   1.000000   0.000000  -0.000000
     28      -0.000000   0.000000   0.000000   0.000000   1.000000   0.000000
     29       0.183087   0.740016   0.000000  -0.000000   0.000000   1.000000
     30       0.000000   0.000000   0.498767   0.000000   0.000000   0.000000
     31       0.000000   0.000000   0.000000   0.498767   0.000000  -0.000000
     32       0.000000   0.000000   0.000000   0.000000   0.498767  -0.000000
     33       0.000000   0.000000  -0.000000   0.000000  -0.000000   0.000266
     34       0.000000   0.000006  -0.000016   0.000002  -0.000007   0.004695
     35       0.000000   0.000019  -0.000054   0.000005  -0.000024   0.007307
     36      -0.000000  -0.000002   0.000005   0.000002   0.000002  -0.000696
     37       0.000000   0.000008  -0.000024   0.000002  -0.000008   0.003132
     38       0.000834   0.007633  -0.008957   0.000853  -0.003839   0.047808
     39       0.003441   0.027057  -0.027959   0.003067  -0.013800   0.114872
     40      -0.000328  -0.002577   0.003067   0.003949   0.001314  -0.010940
     41       0.001475   0.011596  -0.013800   0.001314  -0.001673   0.049231
     42       0.000000   0.000000  -0.000000   0.000000  -0.000000   0.000056
     43       0.000133   0.001203  -0.001424   0.000046  -0.000413   0.009354
     44       0.000000   0.000000   0.000000   0.000000   0.000000   0.000023
     45       0.000000   0.000001  -0.000002   0.000001  -0.000003   0.001321
     46       0.000000   0.000003  -0.000005   0.000003  -0.000007   0.001556
     47      -0.000000  -0.000002   0.000003  -0.000001   0.000004  -0.000934
     48       0.000000   0.000005  -0.000007   0.000004  -0.000010   0.002179
     49       0.000676   0.005372  -0.003305   0.001983  -0.004628   0.030050
     50       0.001669   0.011894  -0.004764   0.004440  -0.010359   0.049466
     51      -0.001001  -0.007136   0.004440  -0.000029   0.006215  -0.029680
     52       0.002336   0.016651  -0.010359   0.006215  -0.011868   0.069253
     53       0.000000   0.000013  -0.000009   0.000021  -0.000026   0.003784
     54       0.002537   0.017272  -0.004068   0.010170  -0.012203   0.069850
     55       0.000000   0.000000   0.000000   0.000000   0.000000   0.000001
     56       0.000000   0.000000  -0.000000  -0.000000  -0.000000   0.000132
     57       0.000000   0.000000  -0.000000  -0.000000  -0.000000   0.000103
     58       0.000000   0.000000  -0.000000   0.000000  -0.000000   0.000021
     59       0.000000   0.000000  -0.000000  -0.000000  -0.000000   0.000308
     60       0.000115   0.001099  -0.000443  -0.000089  -0.001330   0.009240
     61       0.000190   0.001623  -0.000131  -0.000132  -0.001984   0.010140
     62       0.000038   0.000325  -0.000132   0.000504  -0.000397   0.002028
     63       0.000570   0.004870  -0.001984  -0.000397  -0.005423   0.030419
     64       0.000000   0.000000   0.000000   0.000000   0.000000   0.000001
     65       0.000006   0.000071  -0.000048  -0.000019  -0.000090   0.001108
     66       0.000000   0.000000   0.000000   0.000000   0.000000   0.000001
     67       0.000009   0.000104  -0.000015   0.000008  -0.000147   0.001474
     68       0.000000   0.000001  -0.000000  -0.000001  -0.000002   0.000900
     69       0.000929   0.006974  -0.001084  -0.002710  -0.006774   0.035217
     70       0.000000   0.000000   0.000000   0.000000   0.000000   0.000000
     71       0.000000   0.000000   0.000000   0.000000   0.000000   0.000000
     72       0.000000   0.000000   0.000000   0.000000   0.000000   0.000000
     73       0.000000   0.000000   0.000000   0.000000   0.000000  -0.000000
     74       0.000000   0.000000   0.000000   0.000000   0.000000   0.000001
     75       0.000001   0.000014  -0.000013   0.000011  -0.000015   0.000370
     76       0.000004   0.000051  -0.000041   0.000040  -0.000054   0.000975
     77      -0.000003  -0.000043   0.000040  -0.000027   0.000045  -0.000813
     78       0.000004   0.000057  -0.000054   0.000045  -0.000054   0.001097
     79       0.000000   0.000000   0.000000   0.000000   0.000000   0.000000
     80       0.000000   0.000000   0.000000   0.000000   0.000000   0.000000
     81       0.000000   0.000000   0.000000   0.000000   0.000000   0.000000
     82       0.000000   0.000000   0.000000   0.000000   0.000000  -0.000000
     83       0.000000   0.000000   0.000000   0.000000   0.000000   0.000000
     84       0.000000   0.000000  -0.000000   0.000000  -0.000000   0.000000
     85       0.000000   0.000000  -0.000000   0.000000  -0.000000   0.000001
     86       0.000000   0.000000   0.000000  -0.000000   0.000000  -0.000000
     87       0.000000   0.000000  -0.000000   0.000000  -0.000000   0.000000
     88       0.000000   0.000000   0.000000   0.000000   0.000000   0.000000
     89       0.000000   0.000000   0.000000   0.000000   0.000000   0.000000
     90       0.000000   0.000000   0.000000   0.000000   0.000000   0.000000
     91       0.000000   0.000000   0.000000   0.000000   0.000000  -0.000000
     92       0.000000   0.000000   0.000000   0.000000   0.000000   0.000000
     93       0.000000   0.000000  -0.000000   0.000000  -0.000000   0.000001
     94       0.000000   0.000000  -0.000000   0.000000  -0.000000   0.000002
     95       0.000000  -0.000000   0.000000  -0.000000   0.000000  -0.000003
     96       0.000000   0.000000  -0.000000   0.000000  -0.000000   0.000004
     97       0.000000   0.000000   0.000000   0.000000   0.000000   0.000000
     98       0.000000   0.000004  -0.000001   0.000004  -0.000005   0.000129
     99       0.000000   0.000000   0.000000   0.000000   0.000000   0.000000
    100       0.000000   0.000000   0.000000   0.000000   0.000000   0.000000
    101       0.000000   0.000000   0.000000   0.000000   0.000000   0.000000
    102       0.000000   0.000000   0.000000   0.000000   0.000000   0.000000
    103       0.000000   0.000000   0.000000   0.000000   0.000000   0.000000
    104       0.000000   0.000000  -0.000000   0.000000  -0.000000   0.000000
    105       0.000000   0.000000  -0.000000   0.000000  -0.000000   0.000000
    106       0.000000  -0.000000   0.000000  -0.000000   0.000000  -0.000000
    107       0.000000   0.000000  -0.000000   0.000000  -0.000000   0.000000
    108       0.000000   0.000000   0.000000   0.000000   0.000000   0.000000
    109       0.000000   0.000000   0.000000   0.000000   0.000000   0.000000
    110       0.000000   0.000000   0.000000   0.000000   0.000000   0.000000
    111       0.000000   0.000000   0.000000   0.000000   0.000000   0.000000
    112       0.000000   0.000000   0.000000   0.000000   0.000000   0.000000
    113       0.000000   0.000000  -0.000000   0.000000  -0.000000   0.000000
                 30         31         32         33         34         35    
      0      -0.000820  -0.000861   0.000246   0.000000   0.000003   0.000000
      1      -0.029467  -0.030940   0.008840   0.001070   0.009146   0.000398
      2      -0.000664  -0.000443   0.000406   0.000000   0.000000   0.000000
      3      -0.015020  -0.010014   0.009179   0.000000   0.000068   0.000023
      4      -0.018107  -0.014561   0.013347  -0.000000  -0.000029   0.000023
      5      -0.014561  -0.005973   0.008898   0.000000   0.000133   0.000046
      6       0.013347   0.008898  -0.004423  -0.000000  -0.000190  -0.000065
      7      -0.088736  -0.059157   0.054227   0.002258   0.017976   0.002506
      8      -0.116340  -0.116858   0.107120  -0.001108  -0.007621   0.008909
      9      -0.116858  -0.018959   0.071413   0.005172   0.035563   0.005035
     10       0.107120   0.071413  -0.006516  -0.007389  -0.050804  -0.007192
     11      -0.003345  -0.005018   0.006022   0.000000   0.000000   0.000000
     12      -0.040085  -0.060128   0.072153   0.000091   0.001067   0.000499
     13      -0.000168  -0.000050   0.000106   0.000000   0.000001  -0.000001
     14      -0.016175  -0.004793   0.010184   0.000743   0.006651  -0.001731
     15      -0.107039  -0.026760  -0.000000   0.000000   0.001053   0.002256
     16      -0.452475  -0.113119  -0.000000   0.003871   0.062315   0.067706
     17      -0.318014  -0.128224  -0.000000  -0.007511  -0.079526  -0.057861
     18      -0.128224   0.162824  -0.000000   0.004173   0.044181   0.050767
     19       0.000000   0.000000   0.194880  -0.007511  -0.079526  -0.091381
     20      -0.437464  -0.109366  -0.000000   0.039427   0.211333   0.092526
     21      -0.140199  -0.144026  -0.000000  -0.058062  -0.267475   0.003237
     22      -0.144026   0.399899  -0.000000   0.032257   0.148597   0.066495
     23       0.000000   0.000000   0.435906  -0.058062  -0.267475  -0.119691
     24       0.000000   0.000000   0.000000   0.000000   0.000000   0.000000
     25       0.000000   0.000000   0.000000   0.000000   0.000006   0.000019
     26       0.498767   0.000000   0.000000  -0.000000  -0.000016  -0.000054
     27       0.000000   0.498767   0.000000   0.000000   0.000002   0.000005
     28       0.000000   0.000000   0.498767  -0.000000  -0.000007  -0.000024
     29       0.000000  -0.000000  -0.000000   0.000266   0.004695   0.007307
     30       1.000000   0.000000   0.000000  -0.001239  -0.017015  -0.023862
     31       0.000000   1.000000   0.000000   0.000118   0.001621   0.002559
     32       0.000000   0.000000   1.000000  -0.000531  -0.007292  -0.011517
     33      -0.001239   0.000118  -0.000531   1.000000   0.194907   0.000000
     34      -0.017015   0.001621  -0.007292   0.194907   1.000000   0.000000
     35      -0.023862   0.002559  -0.011517   0.000000   0.000000   1.000000
     36       0.002559   0.002768   0.001097  -0.000000   0.000000   0.000000
     37      -0.011517   0.001097  -0.001924  -0.000000  -0.000000   0.000000
     38      -0.100002   0.009524  -0.042858   0.184225   0.752192   0.000000
     39      -0.192930   0.022884  -0.102978  -0.000000   0.000000   0.516001
     40       0.022884   0.045173   0.009807  -0.000000   0.000000   0.000000
     41      -0.102978   0.009807   0.003219   0.000000   0.000000   0.000000
     42      -0.000276   0.000009  -0.000080   0.022433   0.180459  -0.248308
     43      -0.022039   0.000711  -0.006398   0.070713   0.349602  -0.162345
     44      -0.000076   0.000046  -0.000106   0.000000   0.000249   0.000355
     45      -0.003067   0.001840  -0.004294   0.001340   0.031863   0.022777
     46      -0.002744   0.002185  -0.005099  -0.001732  -0.026889  -0.003357
     47       0.002185  -0.000413   0.003059  -0.002021  -0.031371  -0.023260
     48      -0.005099   0.003059  -0.006240   0.003465   0.053778   0.039875
     49      -0.035812   0.021487  -0.050137   0.029579   0.165072   0.047924
     50      -0.030404   0.035371  -0.082533  -0.029040  -0.139364   0.054184
     51       0.035371   0.007325   0.049520  -0.033880  -0.162591  -0.048209
     52      -0.082533   0.049520  -0.086998   0.058079   0.278728   0.082644
     53      -0.003622   0.009054  -0.010865   0.000001   0.000314   0.000563
     54      -0.031853   0.079632  -0.095559   0.006435   0.043642   0.029201
     55      -0.000002  -0.000000  -0.000006   0.000000   0.000000   0.000000
     56      -0.000205  -0.000041  -0.000616   0.000000   0.000106   0.000133
     57      -0.000071  -0.000032  -0.000479  -0.000000  -0.000163  -0.000154
     58      -0.000032   0.000082  -0.000096   0.000000   0.000059   0.000075
     59      -0.000479  -0.000096  -0.001349   0.000001   0.000312   0.000393
     60      -0.007341  -0.001468  -0.022022   0.002716   0.021085   0.010804
     61       0.000722  -0.001611  -0.024168  -0.004889  -0.032767  -0.005313
     62      -0.001611   0.008455  -0.004834   0.001778   0.011915   0.006203
     63      -0.024168  -0.004834  -0.063727   0.009333   0.062555   0.032564
     64      -0.000002  -0.000001  -0.000003   0.000000   0.000005   0.000002
     65      -0.001515  -0.000589  -0.002863   0.001382   0.011436   0.001499
     66      -0.000001   0.000000  -0.000007   0.000000   0.000000   0.000000
     67      -0.000448   0.000224  -0.004256   0.000097   0.001122   0.000811
     68      -0.000573  -0.001433  -0.003583   0.000000   0.000008   0.000016
     69      -0.010706  -0.026766  -0.066915   0.001633   0.013224   0.009844
     70      -0.000000   0.000000  -0.000000   0.000000   0.000000  -0.000000
     71      -0.000001   0.000001  -0.000001   0.000000   0.000029  -0.000010
     72      -0.000002   0.000001  -0.000002   0.000000   0.000012   0.000010
     73       0.000001  -0.000001   0.000002  -0.000000  -0.000073   0.000025
     74      -0.000002   0.000002  -0.000002   0.000000   0.000073  -0.000025
     75      -0.000706   0.000588  -0.000794   0.001582   0.013219  -0.001834
     76      -0.001508   0.001550  -0.002092   0.000777   0.005607   0.006521
     77       0.001550  -0.000940   0.001744  -0.004660  -0.033641   0.004737
     78      -0.002092   0.001744  -0.002002   0.004660   0.033641  -0.004737
     79       0.000000   0.000000   0.000000   0.000000   0.000000   0.000000
     80       0.000000   0.000000   0.000000   0.000000   0.000000  -0.000000
     81      -0.000000   0.000000  -0.000000   0.000000   0.000000  -0.000000
     82       0.000000  -0.000000   0.000000   0.000000  -0.000000   0.000000
     83      -0.000000   0.000000  -0.000000   0.000000   0.000000  -0.000000
     84      -0.000001   0.000000  -0.000000   0.000005   0.000207  -0.000223
     85      -0.000002   0.000001  -0.000002   0.000016   0.000540  -0.000456
     86       0.000001  -0.000001   0.000001  -0.000020  -0.000648   0.000702
     87      -0.000002   0.000001  -0.000001   0.000019   0.000612  -0.000663
     88       0.000000   0.000000   0.000000   0.000000   0.000000   0.000000
     89      -0.000000   0.000000  -0.000000   0.000000   0.000000   0.000000
     90      -0.000000   0.000000  -0.000000   0.000000   0.000000   0.000000
     91       0.000000  -0.000000   0.000000   0.000000   0.000000   0.000000
     92      -0.000000   0.000000  -0.000000   0.000000   0.000000   0.000000
     93      -0.000002   0.000003  -0.000004   0.000000   0.000009   0.000002
     94      -0.000003   0.000006  -0.000008  -0.000000  -0.000004   0.000004
     95       0.000006  -0.000009   0.000012  -0.000001  -0.000039  -0.000007
     96      -0.000008   0.000012  -0.000014   0.000001   0.000037   0.000006
     97      -0.000000   0.000000  -0.000000   0.000000   0.000000   0.000000
     98      -0.000079   0.000266  -0.000344   0.000011   0.000167   0.000091
     99       0.000000   0.000000   0.000000   0.000000   0.000000   0.000000
    100       0.000000   0.000000   0.000000   0.000000   0.000000   0.000000
    101       0.000000   0.000000   0.000000   0.000000   0.000000   0.000000
    102       0.000000   0.000000   0.000000   0.000000   0.000000   0.000000
    103       0.000000   0.000000   0.000000   0.000000   0.000000   0.000000
    104      -0.000000   0.000000  -0.000000   0.000000   0.000000  -0.000000
    105      -0.000000   0.000000  -0.000000   0.000000   0.000000   0.000000
    106       0.000000  -0.000000   0.000000  -0.000000  -0.000001   0.000000
    107      -0.000000   0.000000  -0.000000   0.000000   0.000001  -0.000000
    108       0.000000   0.000000   0.000000   0.000000   0.000000   0.000000
    109      -0.000000   0.000000  -0.000000   0.000000   0.000000   0.000000
    110       0.000000   0.000000   0.000000   0.000000   0.000000   0.000000
    111      -0.000000   0.000000  -0.000000   0.000000   0.000000  -0.000000
    112       0.000000   0.000000   0.000000   0.000000   0.000000   0.000000
    113      -0.000000   0.000000  -0.000000   0.000000   0.000000  -0.000000
                 36         37         38         39         40         41    
      0      -0.000007   0.000005   0.002539   0.000381  -0.008773   0.005722
      1      -0.009164   0.005977   0.048101   0.003800  -0.087401   0.057001
      2      -0.000000   0.000000   0.000669   0.000386  -0.001802   0.002574
      3      -0.000109   0.000155   0.011070   0.004825  -0.022515   0.032165
      4       0.000046  -0.000065  -0.002237   0.006424   0.004633  -0.006619
      5      -0.000181   0.000305   0.010442   0.004633  -0.014204   0.030887
      6       0.000305  -0.000403  -0.014917  -0.006619   0.030887  -0.036707
      7      -0.011694   0.016705   0.079909   0.019713  -0.091992   0.131418
      8       0.005035  -0.007192  -0.023704   0.072722   0.027289  -0.038984
      9      -0.013507   0.033564   0.110620   0.027289  -0.048777   0.181924
     10       0.033564  -0.037961  -0.158028  -0.038984   0.181924  -0.181322
     11      -0.000000   0.000000   0.000140   0.000231  -0.000357   0.000567
     12      -0.000770   0.001224   0.010464   0.009093  -0.014053   0.022319
     13      -0.000001   0.000003   0.001651  -0.001488  -0.002479   0.006446
     14      -0.002885   0.007502   0.038355  -0.018180  -0.030301   0.078782
     15      -0.001253   0.002256   0.038151   0.066072  -0.036707   0.066072
     16      -0.037615   0.067706   0.229252   0.294410  -0.163561   0.294410
     17       0.050767  -0.091381  -0.151706  -0.035720   0.112963  -0.203334
     18       0.005316   0.050767   0.084281   0.112963   0.104857   0.112963
     19       0.050767  -0.057861  -0.151706  -0.203334   0.112963  -0.035720
     20      -0.051403   0.092526   0.449981   0.333015  -0.185008   0.333015
     21       0.066495  -0.119691  -0.400446   0.146082   0.164642  -0.296356
     22       0.085986   0.066495   0.222470   0.164642   0.350970   0.164642
     23       0.066495   0.003237  -0.400446  -0.296356   0.164642   0.146082
     24      -0.000000   0.000000   0.000834   0.003441  -0.000328   0.001475
     25      -0.000002   0.000008   0.007633   0.027057  -0.002577   0.011596
     26       0.000005  -0.000024  -0.008957  -0.027959   0.003067  -0.013800
     27       0.000002   0.000002   0.000853   0.003067   0.003949   0.001314
     28       0.000002  -0.000008  -0.003839  -0.013800   0.001314  -0.001673
     29      -0.000696   0.003132   0.047808   0.114872  -0.010940   0.049231
     30       0.002559  -0.011517  -0.100002  -0.192930   0.022884  -0.102978
     31       0.002768   0.001097   0.009524   0.022884   0.045173   0.009807
     32       0.001097  -0.001924  -0.042858  -0.102978   0.009807   0.003219
     33      -0.000000  -0.000000   0.184225  -0.000000  -0.000000   0.000000
     34       0.000000  -0.000000   0.752192   0.000000   0.000000   0.000000
     35       0.000000   0.000000   0.000000   0.516001   0.000000   0.000000
     36       1.000000   0.000000   0.000000   0.000000   0.516001   0.000000
     37       0.000000   1.000000   0.000000   0.000000   0.000000   0.516001
     38       0.000000   0.000000   1.000000   0.000000   0.000000   0.000000
     39       0.000000   0.000000   0.000000   1.000000   0.000000   0.000000
     40       0.516001   0.000000   0.000000   0.000000   1.000000   0.000000
     41       0.000000   0.516001   0.000000   0.000000   0.000000   1.000000
     42      -0.024831   0.000000   0.361575  -0.548323  -0.054832   0.000000
     43      -0.016235  -0.000000   0.646285  -0.510569  -0.051057   0.000000
     44       0.000414  -0.000710   0.025411   0.029337   0.034226  -0.058673
     45       0.026573  -0.045555   0.169535   0.145541   0.169798  -0.291082
     46      -0.023260   0.039875  -0.073857   0.056471  -0.076920   0.131862
     47      -0.010556   0.046521  -0.086166  -0.076920   0.032662   0.153839
     48       0.046521  -0.063169   0.147713   0.131862   0.153839  -0.141322
     49       0.055911  -0.095847   0.378247   0.186618   0.217721  -0.373236
     50      -0.048209   0.082644  -0.224406   0.261190  -0.129169   0.221433
     51       0.039262   0.096418  -0.261807  -0.129169   0.221209   0.258338
     52       0.096418  -0.069782   0.448812   0.221433   0.258338  -0.070959
     53       0.000488  -0.000338   0.021103   0.047679   0.041322  -0.028607
     54       0.025307  -0.017521   0.146288   0.173352   0.150238  -0.104011
     55      -0.000000  -0.000000   0.000869   0.001838  -0.000668  -0.003509
     56      -0.000048  -0.000254   0.013483   0.021531  -0.007829  -0.041104
     57       0.000075   0.000393  -0.010029  -0.007255   0.005935   0.031158
     58       0.000024  -0.000143   0.003647   0.005935   0.006908  -0.011330
     59      -0.000143  -0.000699   0.019146   0.031158  -0.011330  -0.050418
     60      -0.003929  -0.020626   0.089347   0.080817  -0.029388  -0.154286
[...]
 1 C  py              0.1       0.0       0.0       0.0       0.0       0.9
 2 H  s               0.0       0.1       0.0       0.0       0.0       0.1
 3 H  s               0.0       0.1       0.0       0.1       0.0       0.0
 4 C  s               0.4       3.2       0.4       0.6      12.0       1.9
 4 C  pz              0.1       0.1       0.0       0.1       0.3       0.6
 4 C  px              0.1       1.5       0.0       1.3       0.5       1.1
 4 C  py              2.8       0.1       0.1       0.1       0.9       3.3
 5 O  s               1.3       1.1       0.1       0.0       1.4       0.1
 5 O  pz             14.3      22.0       2.6       1.0      26.3       0.7
 5 O  px             10.4       9.5       0.8      28.1       8.4       0.3
 5 O  py              1.7      22.6       0.1      10.8       0.3       0.1
 6 N  s               0.4       0.1       0.2       0.1       0.2       0.2
 6 N  pz              1.6       0.5       0.0       0.8       0.2       4.0
 6 N  px              0.1       1.1       0.2       5.2       0.1      12.0
 6 N  py              1.2       0.6       0.3       0.2       0.1      27.7
 7 H  s               0.2       0.2       0.2       0.1       0.1       1.7
 8 C  s               4.0       0.2       0.0       0.2       0.0       0.9
 8 C  pz              0.3       0.0       2.9       0.0       0.4       2.8
 8 C  px              2.8       0.0       0.0       3.4       0.5       0.8
 8 C  py              1.5       0.1       0.5       0.2       2.7       3.5
 9 H  s               0.1       0.1       0.1       1.1       0.7       0.4
10 C  s               2.9       1.1       0.1       0.8       0.2       2.9
10 C  pz              0.0       0.1       0.4       0.0       0.0       0.2
10 C  px              0.3       0.0       0.0       0.2       0.3       0.0
10 C  py              0.1       0.2       0.0       0.0       0.8       0.1
11 H  s               0.4       0.0       0.0       0.0       0.0       0.1
12 H  s               0.2       0.0       0.0       0.0       0.0       0.0
13 H  s               0.2       0.2       0.0       0.2       0.1       0.0
14 C  s              19.6       0.8       3.2       0.2       8.9       2.1
14 C  pz              1.2       0.0       0.2       0.9       0.4       0.1
14 C  px              0.1       0.2       0.5       1.4       0.2       0.3
14 C  py              0.1       0.4       0.8       0.3       1.1       1.5
15 O  s               0.2       0.8       2.6       0.1       0.2       0.2
15 O  pz              1.1      13.9      35.9      14.4       2.4       0.0
15 O  px              0.9       3.2      19.0       4.4       0.0      19.3
15 O  py              0.5       7.8      19.6      13.6      20.2       2.1
16 N  s               0.3       0.2       0.2       0.1       0.4       0.0
16 N  pz              8.6       1.8       0.6       3.3       1.1       2.1
16 N  px             11.0       1.8       2.8       3.5       1.5       3.3
16 N  py              4.7       0.1       4.0       0.2       4.2       0.0
17 H  s               0.3       0.1       0.3       0.2       0.1       0.1
18 C  s               0.3       1.0       0.2       1.0       0.5       0.1
18 C  pz              1.2       0.1       0.0       0.2       0.1       0.1
18 C  px              0.2       0.0       0.0       0.0       0.0       0.0
18 C  py              0.0       0.0       0.0       0.0       0.0       0.1
19 H  s               0.8       0.1       0.1       0.1       0.1       0.1
20 H  s               0.2       0.1       0.0       0.2       0.1       0.1

                    102       103       104       105       106       107   
                   1.45600   1.49158   1.57641   1.60040   1.62608   1.79728
                   0.00000   0.00000   0.00000   0.00000   0.00000   0.00000
                  --------  --------  --------  --------  --------  --------
 0 H  s               0.1       0.1       0.1       0.0       0.2       0.4
 1 C  s               1.2       0.3       0.7       3.3      18.2      25.8
 1 C  pz              0.1       0.4       0.0       0.0       0.0       0.1
 1 C  px              0.0       0.0       0.0       0.0       0.1       0.0
 1 C  py              0.0       0.5       0.2       0.0       0.7       0.0
 2 H  s               0.1       0.1       0.0       0.0       0.1       0.4
 3 H  s               0.0       0.0       0.0       0.0       0.1       0.3
 4 C  s               0.2       5.3       3.8       0.1       4.6      10.0
 4 C  pz              0.6       1.3       0.1       0.0       3.3       0.1
 4 C  px              0.8       0.1       0.3       0.3       1.3       0.1
 4 C  py              1.6       0.1       0.5       0.8       1.6       0.5
 5 O  s               0.0       0.5       0.1       0.0       0.7       0.2
 5 O  pz              6.9       0.0       0.1       0.1       3.4       0.2
 5 O  px             17.0       4.9       1.9       4.0       0.6       0.0
 5 O  py             33.6       1.7       5.8       5.6       1.5       0.2
 6 N  s               0.6       0.1       0.5       0.2       1.2       2.7
 6 N  pz              9.4       0.4       0.9       0.3      32.5       2.5
 6 N  px              0.1       3.2       0.7       0.2       2.0       0.5
 6 N  py              0.5       7.9       0.7       0.4       1.9       0.1
 7 H  s               0.7       0.7       0.2       0.2       4.2       0.3
 8 C  s               1.1       3.5       1.2       5.5       0.5       5.2
 8 C  pz              0.1       0.7       0.5       0.1       2.0       0.1
 8 C  px              0.8       0.5       0.5       0.5       0.9       0.2
 8 C  py              0.2       1.0       0.5       1.8       0.5       0.1
 9 H  s               0.2       0.5       0.8       0.4       1.2       0.1
10 C  s              11.2       1.3       0.5      23.8       1.3       8.9
10 C  pz              0.1       0.1       0.2       0.0       0.3       0.4
10 C  px              0.0       0.2       0.1       0.0       0.1       0.4
10 C  py              0.0       0.3       0.1       0.2       0.0       0.0
11 H  s               0.1       0.1       0.0       0.1       0.1       0.1
12 H  s               0.1       0.0       0.0       0.0       0.0       0.1
13 H  s               0.1       0.1       0.1       0.3       0.0       0.2
14 C  s               0.4       4.0       4.0       1.0       0.3       9.5
14 C  pz              0.1       0.1       0.2       1.9       0.1       2.5
14 C  px              0.1       3.1       0.5       0.6       0.0       5.8
14 C  py              0.7       2.0       0.6       0.8       0.5       1.2
15 O  s               0.0       0.0       0.2       0.3       0.1       0.8
15 O  pz              0.5       0.8       0.0       4.2       0.1       0.4
15 O  px              0.4      30.4       0.0       0.4       0.9       4.3
15 O  py              1.7      16.3       2.7       0.1       3.0       0.5
16 N  s               0.5       1.0       1.1       0.1       0.0       0.1
16 N  pz              2.3       1.7       2.3      11.3       1.6       4.9
16 N  px              0.5       0.5       4.4      10.9       4.5       1.8
16 N  py              0.5       0.2       0.4       3.9       0.7       0.4
17 H  s               0.4       0.4       0.3       2.0       0.4       1.0
18 C  s               4.1       3.0      60.5      13.1       2.3       6.1
18 C  px              0.1       0.0       0.2       0.4       0.1       0.2
18 C  py              0.0       0.2       0.1       0.3       0.1       0.1
19 H  s               0.0       0.0       0.4       0.1       0.0       0.0
20 H  s               0.1       0.1       0.3       0.1       0.0       0.0
21 H  s               0.0       0.1       0.5       0.1       0.1       0.0

                    108       109       110       111       112       113   
                   1.85722   2.12032   2.47579   2.54856   3.06577   3.15591
                   0.00000   0.00000   0.00000   0.00000   0.00000   0.00000
                  --------  --------  --------  --------  --------  --------
 0 H  s               0.4       0.1       0.0       0.0       0.0       0.0
 1 C  s              29.2       6.8       0.1       0.0       0.2       0.0
 1 C  pz              0.2       0.1       0.0       0.0       0.0       0.0
 2 H  s               0.5       0.2       0.0       0.0       0.0       0.0
 3 H  s               0.2       0.0       0.0       0.0       0.0       0.0
 4 C  s               5.4       0.2       0.4       0.5       1.4       0.0
 4 C  pz              0.0       0.3       0.0       0.1       1.8       0.0
 4 C  px              1.1       1.2       0.0       0.0       0.2       0.0
 4 C  py              2.2       1.4       0.1       0.1       0.1       0.0
 5 O  s               0.3       0.0       0.0       0.1      89.7       0.2
 5 O  pz              0.3       0.1       0.0       0.0       4.1       0.0
 5 O  px              0.8       0.1       0.2       0.1       0.2       0.0
 5 O  py              2.7       0.0       0.2       0.2       0.0       0.0
 6 N  s               0.0       4.4      47.8      37.8       0.0       0.1
 6 N  pz              1.4       1.5       0.8       1.3       0.6       0.1
 6 N  px              0.1       0.0       0.0       0.1       0.3       0.1
 6 N  py              2.2       0.1       0.1       0.0       0.4       0.0
 7 H  s               0.4       0.2       0.0       0.0       0.2       0.0
 8 C  s               0.2      62.8       1.7       7.4       0.2       0.3
 8 C  pz              0.6       0.0       0.1       0.0       0.0       0.0
 8 C  px              0.3       0.1       0.0       0.0       0.0       0.4
 8 C  py              0.2       0.1       0.1       0.1       0.0       0.1
 9 H  s               0.4       1.2       0.3       0.3       0.1       0.0
10 C  s              26.4      11.8       0.6       0.1       0.0       0.0
10 C  pz              0.0       0.0       0.3       0.0       0.0       0.0
10 C  px              0.2       0.1       0.0       0.0       0.0       0.0
10 C  py              0.0       0.0       0.1       0.2       0.0       0.0
11 H  s               0.2       0.3       0.0       0.0       0.0       0.0
12 H  s               0.2       0.3       0.0       0.0       0.0       0.0
13 H  s               0.1       0.3       0.0       0.0       0.0       0.0
14 C  s               4.4       1.2       1.6       0.3       0.0       0.6
14 C  pz              2.1       0.0       0.0       0.0       0.0       3.0
14 C  px              1.9       0.2       0.1       0.3       0.0       0.0
14 C  py              0.0       0.2       0.1       0.2       0.0       0.0
15 O  s               0.5       0.2       0.3       0.6       0.2      88.2
15 O  pz              0.5       0.1       0.0       0.0       0.0       3.7
15 O  px              0.9       0.1       0.1       0.1       0.0       0.0
15 O  py              0.0       0.2       0.0       0.1       0.0       0.0
16 N  s               0.3       0.9      42.5      47.9       0.0       1.0
16 N  pz              3.6       0.0       0.1       0.3       0.0       0.2
16 N  px              5.9       0.9       0.0       0.0       0.0       0.8
16 N  py              1.5       0.4       0.1       0.1       0.0       0.5
17 H  s               0.9       0.0       0.2       0.1       0.0       0.1
18 C  s               0.7       1.8       1.5       1.1       0.0       0.1
18 C  px              0.2       0.0       0.0       0.1       0.0       0.0
18 C  py              0.1       0.0       0.0       0.0       0.0       0.0



                      *****************************
                      * MAYER POPULATION ANALYSIS *
                      *****************************

  NA   - Mulliken gross atomic population
  ZA   - Total nuclear charge
  QA   - Mulliken gross atomic charge
  VA   - Mayer's total valence
  BVA  - Mayer's bonded valence
  FA   - Mayer's free valence

  ATOM       NA         ZA         QA         VA         BVA        FA
  0 H      0.6529     1.0000     0.3471     0.8254     0.8254     0.0000
  1 C      7.0873     6.0000    -1.0873     3.4267     3.4267     0.0000
  2 H      0.6695     1.0000     0.3305     0.8505     0.8505     0.0000
  3 H      0.6605     1.0000     0.3395     0.8614     0.8614     0.0000
  4 C      4.7901     6.0000     1.2099     3.3234     3.3234    -0.0000
  5 O      8.9536     8.0000    -0.9536     1.5669     1.5669     0.0000
  6 N      7.8940     7.0000    -0.8940     2.7456     2.7456     0.0000
  7 H      0.5512     1.0000     0.4488     0.7842     0.7842    -0.0000
  8 C      6.1191     6.0000    -0.1191     3.4775     3.4775     0.0000
  9 H      0.7029     1.0000     0.2971     0.8772     0.8772     0.0000
 10 C      7.0142     6.0000    -1.0142     3.4095     3.4095     0.0000
 11 H      0.6624     1.0000     0.3376     0.8294     0.8294    -0.0000
 12 H      0.6644     1.0000     0.3356     0.8463     0.8463     0.0000
 13 H      0.6557     1.0000     0.3443     0.8503     0.8503     0.0000
 14 C      4.7899     6.0000     1.2101     3.3186     3.3186     0.0000
 15 O      8.9584     8.0000    -0.9584     1.5583     1.5583     0.0000
 16 N      7.9416     7.0000    -0.9416     2.7157     2.7157     0.0000
 17 H      0.5408     1.0000     0.4592     0.7633     0.7633     0.0000
 18 C      6.6669     6.0000    -0.6669     3.4259     3.4259    -0.0000
 19 H      0.6703     1.0000     0.3297     0.8532     0.8532    -0.0000
 20 H      0.6784     1.0000     0.3216     0.8639     0.8639    -0.0000
 21 H      0.6759     1.0000     0.3241     0.8403     0.8403    -0.0000

  Mayer bond orders larger than 0.100000
B(  0-H ,  1-C ) :   0.8206 B(  1-C ,  2-H ) :   0.8407 B(  1-C ,  3-H ) :   0.8512 
B(  1-C ,  4-C ) :   0.8977 B(  4-C ,  5-O ) :   1.3766 B(  4-C ,  6-N ) :   1.0440 
B(  6-N ,  7-H ) :   0.7503 B(  6-N ,  8-C ) :   0.8315 B(  8-C ,  9-H ) :   0.8331 
B(  8-C , 10-C ) :   0.9039 B(  8-C , 14-C ) :   0.8839 B( 10-C , 11-H ) :   0.8350 
B( 10-C , 12-H ) :   0.8389 B( 10-C , 13-H ) :   0.8380 B( 14-C , 15-O ) :   1.3981 
B( 14-C , 16-N ) :   1.0149 B( 16-N , 17-H ) :   0.7461 B( 16-N , 18-C ) :   0.8604 
B( 18-C , 19-H ) :   0.8568 B( 18-C , 20-H ) :   0.8562 B( 18-C , 21-H ) :   0.8395 


-------
TIMINGS
-------

Total SCF time: 0 days 0 hours 0 min 4 sec 

Total time                  ....       4.987 sec
Sum of individual times     ....       4.658 sec  ( 93.4%)

Fock matrix formation       ....       2.464 sec  ( 49.4%)
  XC integration            ....       1.122 sec  ( 45.5% of F)
    Basis function eval.    ....       0.464 sec  ( 41.3% of XC)
    Density eval.           ....       0.226 sec  ( 20.1% of XC)
    XC-Functional eval.     ....       0.147 sec  ( 13.1% of XC)
    XC-Potential eval.      ....       0.237 sec  ( 21.1% of XC)
Diagonalization             ....       0.000 sec  (  0.0%)
Density matrix formation    ....       0.000 sec  (  0.0%)
Population analysis         ....       0.098 sec  (  2.0%)
Initial guess               ....       0.408 sec  (  8.2%)
Orbital Transformation      ....       0.000 sec  (  0.0%)
Orbital Orthonormalization  ....       0.000 sec  (  0.0%)
DIIS solution               ....       0.000 sec  (  0.0%)
SOSCF solution              ....       0.000 sec  (  0.0%)
Grid generation             ....       1.687 sec  ( 33.8%)


-------------------------------------------------------------------------------
                          DFT DISPERSION CORRECTION                            
                                                                               
                              DFTD3 V3.1  Rev 1                                
                              USING zero damping                               
-------------------------------------------------------------------------------
The B3LYP functional is recognized
Active option DFTDOPT                   ...         3   

C6 coefficients used: 
	2 C6 for element 	 1
Z=1  CN=    0.911800  	 C6(AA)=    3.026700
Z=1  CN=    0.000000  	 C6(AA)=    7.591600
	5 C6 for element 	 6
Z=6  CN=    0.000000  	 C6(AA)=   49.113000
Z=6  CN=    0.986800  	 C6(AA)=   43.245200
Z=6  CN=    1.998500  	 C6(AA)=   29.360200
Z=6  CN=    2.998700  	 C6(AA)=   25.780900
Z=6  CN=    3.984400  	 C6(AA)=   18.206700
	4 C6 for element 	 7
Z=7  CN=    0.000000  	 C6(AA)=   25.268500
Z=7  CN=    0.994400  	 C6(AA)=   22.124100
Z=7  CN=    2.014300  	 C6(AA)=   19.676800
Z=7  CN=    2.990300  	 C6(AA)=   15.581700
	3 C6 for element 	 8
Z=8  CN=    0.000000  	 C6(AA)=   15.505900
Z=8  CN=    0.992500  	 C6(AA)=   12.816100
Z=8  CN=    1.988700  	 C6(AA)=   10.370800

  #           XYZ [au]              r0(AA) [Ang.]  CN      C6(AA)     C8(AA)    C10(AA) [au]
  1    8.12582   24.75541   16.25164  h   1.091   1.005       3.1       37.3      552.8
  2    9.82658   25.70028   16.62959  c   1.455   4.013      18.3      529.7    18766.1
  3    9.25966   27.02308   18.14137  h   1.091   0.996       3.1       37.4      553.6
  4   10.58247   26.83411   14.92884  h   1.091   0.981       3.1       37.5      554.9
  5   11.52733   23.62158   17.76343  c   1.455   3.069      25.5      738.3    26157.3
  6   12.09425   23.62158   20.03110  o   1.241   1.056      12.8      257.6     6368.4
  7   12.47219   21.92082   16.06267  n   1.311   3.122      15.6      344.4     9307.5
  8   12.28322   21.92082   14.17295  h   1.091   1.008       3.1       37.3      552.6
  9   13.79500   19.65315   17.19651  c   1.455   4.099      18.3      528.2    18712.4
 10   14.92884   20.22007   18.89726  h   1.091   1.004       3.1       37.3      552.9
 11   11.71630   17.95240   18.14137  c   1.455   4.057      18.3      528.8    18734.2
 12   10.77144   17.19651   16.62959  h   1.091   1.006       3.1       37.3      552.7
 13   12.47219   16.44062   19.27521  h   1.091   1.001       3.1       37.4      553.2
 14   10.20452   18.89726   19.27521  h   1.091   0.993       3.1       37.4      553.8
 15   15.87370   18.51932   15.49575  c   1.455   3.093      25.5      736.4    26090.6
 16   15.87370   18.70829   13.22808  o   1.241   1.073      12.8      257.3     6361.1
 17   17.57445   17.00754   16.62959  n   1.311   3.094      15.6      344.6     9311.8
 18   17.19651   17.00754   18.51932  h   1.091   1.019       3.1       37.3      551.8
 19   19.84212   15.87370   15.68473  c   1.455   4.024      18.3      529.4    18757.3
 20   20.22007   14.55089   17.19651  h   1.091   1.004       3.1       37.3      552.9
 21   19.65315   15.11781   13.79500  h   1.091   0.999       3.1       37.4      553.3
 22   21.35391   17.19651   15.68473  h   1.091   1.002       3.1       37.4      553.1

molecular C6(AA) [au] = 3984.333169 


            DFT-D V3
 parameters
 s6 scaling factor         :     1.0000 
 rs6 scaling factor        :     1.2610 
 s8 scaling factor         :     1.7030 
 rs8 scaling factor        :     1.0000 
 Damping factor alpha6     :    14.0000 
 Damping factor alpha8     :    16.0000 
 ad hoc parameters k1-k3   :    16.0000     1.3333    -4.0000 

 Edisp/kcal,au: -10.937173728759  -0.017429493919 
 E6   /kcal   :  -2.125066062 
 E8   /kcal   :  -8.812107667 
 % E8         :  80.570244974 

-------------------------   ----------------
Dispersion correction           -0.017429494
-------------------------   ----------------


-------------------------   --------------------
FINAL SINGLE POINT ENERGY      -492.513724073346   (Wavefunction not fully converged!)
-------------------------   --------------------



     ------------------------------------------------------------------------------
                                      ERROR
     This wavefunction IS NOT FULLY CONVERGED! 
     You can't use it for properties or numerical calculations !
     Aborting the run ...
     Please restart calculation (with larger maxiter/different convergence flags)
     ------------------------------------------------------------------------------


