[Molden Format]
[Title]
Written by TeraChem
[Atoms] Angs
H   1   1      4.30000   13.10000    8.60000
C   2   6      5.20000   13.60000    8.80000
H   3   1      4.90000   14.30000    9.60000
H   4   1      5.60000   14.20000    7.90000
C   5   6      6.10000   12.50000    9.40000
O   6   8      6.40000   12.50000   10.60000
N   7   7      6.60000   11.60000    8.50000
H   8   1      6.50000   11.60000    7.50000
C   9   6      7.30000   10.40000    9.10000
H   10   1      7.90000   10.70000   10.00000
C   11   6      6.20000    9.50000    9.60000
H   12   1      5.70000    9.10000    8.80000
H   13   1      6.60000    8.70000   10.20000
H   14   1      5.40000   10.00000   10.20000
C   15   6      8.40000    9.80000    8.20000
O   16   8      8.40000    9.90000    7.00000
N   17   7      9.30000    9.00000    8.80000
H   18   1      9.10000    9.00000    9.80000
C   19   6     10.50000    8.40000    8.30000
H   20   1     10.70000    7.70000    9.10000
H   21   1     10.40000    8.00000    7.30000
H   22   1     11.30000    9.10000    8.30000
[GTO]
    1 0
 s    2 1.00
            5.447178             0.156285
            0.824547             0.904691
 s    1 1.00
            0.183192             1.000000

    2 0
 s    3 1.00
          172.256000             0.061767
           25.910900             0.358794
            5.533350             0.700713
 s    2 1.00
            3.664980            -0.395895
            0.770545             1.215834
 s    1 1.00
            0.195857             1.000000
 p    2 1.00
            3.664980             0.236460
            0.770545             0.860619
 p    1 1.00
            0.195857             1.000000

    3 0
 s    2 1.00
            5.447178             0.156285
            0.824547             0.904691
 s    1 1.00
            0.183192             1.000000

    4 0
 s    2 1.00
            5.447178             0.156285
            0.824547             0.904691
 s    1 1.00
            0.183192             1.000000

    5 0
 s    3 1.00
          172.256000             0.061767
           25.910900             0.358794
            5.533350             0.700713
 s    2 1.00
            3.664980            -0.395895
            0.770545             1.215834
 s    1 1.00
            0.195857             1.000000
 p    2 1.00
            3.664980             0.236460
            0.770545             0.860619
 p    1 1.00
            0.195857             1.000000

    6 0
 s    3 1.00
          322.037000             0.059239
           48.430800             0.351500
           10.420600             0.707658
 s    2 1.00
            7.402940            -0.404454
            1.576200             1.221562
 s    1 1.00
            0.373684             1.000000
 p    2 1.00
            7.402940             0.244586
            1.576200             0.853955
 p    1 1.00
            0.373684             1.000000

    7 0
 s    3 1.00
          242.766000             0.059866
           36.485100             0.352955
            7.814490             0.706513
 s    2 1.00
            5.425220            -0.413300
            1.149150             1.224417
 s    1 1.00
            0.283205             1.000000
 p    2 1.00
            5.425220             0.237972
            1.149150             0.858953
 p    1 1.00
            0.283205             1.000000

    8 0
 s    2 1.00
            5.447178             0.156285
            0.824547             0.904691
 s    1 1.00
            0.183192             1.000000

    9 0
 s    3 1.00
          172.256000             0.061767
           25.910900             0.358794
            5.533350             0.700713
 s    2 1.00
            3.664980            -0.395895
            0.770545             1.215834
 s    1 1.00
            0.195857             1.000000
 p    2 1.00
            3.664980             0.236460
            0.770545             0.860619
 p    1 1.00
            0.195857             1.000000

   10 0
 s    2 1.00
            5.447178             0.156285
            0.824547             0.904691
 s    1 1.00
            0.183192             1.000000

   11 0
 s    3 1.00
          172.256000             0.061767
           25.910900             0.358794
            5.533350             0.700713
 s    2 1.00
            3.664980            -0.395895
            0.770545             1.215834
 s    1 1.00
            0.195857             1.000000
 p    2 1.00
            3.664980             0.236460
            0.770545             0.860619
 p    1 1.00
            0.195857             1.000000

   12 0
 s    2 1.00
            5.447178             0.156285
            0.824547             0.904691
 s    1 1.00
            0.183192             1.000000

   13 0
 s    2 1.00
            5.447178             0.156285
            0.824547             0.904691
 s    1 1.00
            0.183192             1.000000

   14 0
 s    2 1.00
            5.447178             0.156285
            0.824547             0.904691
 s    1 1.00
            0.183192             1.000000

   15 0
 s    3 1.00
          172.256000             0.061767
           25.910900             0.358794
            5.533350             0.700713
 s    2 1.00
            3.664980            -0.395895
            0.770545             1.215834
 s    1 1.00
            0.195857             1.000000
 p    2 1.00
            3.664980             0.236460
            0.770545             0.860619
 p    1 1.00
            0.195857             1.000000

   16 0
 s    3 1.00
          322.037000             0.059239
           48.430800             0.351500
           10.420600             0.707658
 s    2 1.00
            7.402940            -0.404454
            1.576200             1.221562
 s    1 1.00
            0.373684             1.000000
 p    2 1.00
            7.402940             0.244586
            1.576200             0.853955
 p    1 1.00
            0.373684             1.000000

   17 0
 s    3 1.00
          242.766000             0.059866
           36.485100             0.352955
            7.814490             0.706513
 s    2 1.00
            5.425220            -0.413300
            1.149150             1.224417
 s    1 1.00
            0.283205             1.000000
 p    2 1.00
            5.425220             0.237972
            1.149150             0.858953
 p    1 1.00
            0.283205             1.000000

   18 0
 s    2 1.00
            5.447178             0.156285
            0.824547             0.904691
 s    1 1.00
            0.183192             1.000000

   19 0
 s    3 1.00
          172.256000             0.061767
           25.910900             0.358794
            5.533350             0.700713
 s    2 1.00
            3.664980            -0.395895
            0.770545             1.215834
 s    1 1.00
            0.195857             1.000000
 p    2 1.00
            3.664980             0.236460
            0.770545             0.860619
 p    1 1.00
            0.195857             1.000000

   20 0
 s    2 1.00
            5.447178             0.156285
            0.824547             0.904691
 s    1 1.00
            0.183192             1.000000

   21 0
 s    2 1.00
            5.447178             0.156285
            0.824547             0.904691
 s    1 1.00
            0.183192             1.000000

   22 0
 s    2 1.00
            5.447178             0.156285
            0.824547             0.904691
 s    1 1.00
            0.183192             1.000000

[MO]
 Ene=   -18.9983
 Spin= Alpha
 Occup= 2.0
    1    0.00016
    2    0.00062
    3    0.00001
    4    0.00015
    5   -0.00577
    6    0.00003
    7    0.00005
    8   -0.00038
    9   -0.00308
   10    0.00521
   11    0.00634
   12   -0.00082
   13   -0.00280
   14    0.00082
   15    0.00155
   16   -0.00013
   17   -0.00125
   18   -0.01911
   19   -0.00039
   20   -0.00044
   21   -0.00174
   22   -0.00874
   23    0.00335
   24   -0.03052
   25   -0.98280
   26   -0.10770
   27    0.06437
   28    0.00110
   29    0.00015
   30    0.00452
   31   -0.00415
   32   -0.00070
   33   -0.01726
   34    0.00000
   35    0.00003
   36   -0.00233
   37   -0.00085
   38    0.00090
   39   -0.00091
   40    0.00558
   41   -0.00580
   42    0.00755
   43    0.00232
   44    0.00155
   45    0.00008
   46    0.00004
   47   -0.00606
   48    0.00051
   49   -0.00082
   50    0.00023
   51    0.00017
   52   -0.00049
   53    0.00239
   54    0.00052
   55   -0.00005
   56   -0.00003
   57   -0.00025
   58    0.00027
   59   -0.00001
   60   -0.00025
   61    0.00004
   62    0.00080
   63    0.00100
   64   -0.00103
   65   -0.00001
   66   -0.00014
   67    0.00010
   68    0.00024
   69   -0.00042
   70    0.00188
   71   -0.00005
   72   -0.00016
   73    0.00223
   74   -0.00005
   75    0.00008
   76    0.00005
   77   -0.00149
   78    0.00075
   79    0.00034
   80    0.00345
   81    0.00042
   82   -0.00050
   83   -0.00003
   84    0.00003
   85    0.00001
   86    0.00026
   87   -0.00014
   88   -0.00017
   89   -0.00001
   90   -0.00005
   91    0.00036
   92   -0.00007
   93   -0.00000
   94    0.00002
   95    0.00029
   96    0.00000
   97   -0.00022
   98    0.00011
   99   -0.00014
  100   -0.00000
  101   -0.00005
  102   -0.00017
  103    0.00007
  104   -0.00004
  105   -0.00000
  106   -0.00005
  107    0.00004
  108   -0.00013
  109    0.00001
  110    0.00013
  111   -0.00002
  112    0.00001
  113    0.00000
  114    0.00004
 Ene=   -18.9961
 Spin= Alpha
 Occup= 2.0
    1    0.00008
    2    0.00014
    3    0.00003
    4    0.00018
    5   -0.00106
    6   -0.00000
    7   -0.00000
    8   -0.00002
    9   -0.00019
   10    0.00066
   11   -0.00005
   12    0.00002
   13   -0.00007
   14    0.00007
   15   -0.00008
   16    0.00002
   17    0.00031
   18    0.00093
   19    0.00027
   20   -0.00038
   21   -0.00011
   22   -0.00101
   23    0.00012
   24   -0.00093
   25   -0.00344
   26   -0.00035
   27    0.00040
   28   -0.00004
   29   -0.00009
   30    0.00002
   31    0.00014
   32    0.00030
   33   -0.00012
   34    0.00015
   35    0.00071
   36   -0.00597
   37   -0.00053
   38    0.00012
   39    0.00040
   40    0.00095
   41    0.00211
   42   -0.00279
   43   -0.00017
   44   -0.00053
   45    0.00002
   46    0.00009
   47   -0.00734
   48    0.00076
   49   -0.00040
   50    0.00052
   51   -0.01272
   52    0.00804
   53   -0.00531
   54    0.00156
   55    0.00150
   56    0.00005
   57    0.00025
   58   -0.00165
   59   -0.00021
   60   -0.00005
   61   -0.00015
   62    0.00318
   63   -0.00198
   64    0.00329
   65    0.00021
   66    0.00244
   67   -0.00038
   68   -0.00185
   69    0.00029
   70    0.00042
   71   -0.00040
   72   -0.00208
   73   -0.01450
   74    0.00030
   75   -0.00044
   76    0.00195
   77   -0.00210
   78   -0.00224
   79    0.03815
   80   -0.98289
   81   -0.10874
   82    0.06904
   83   -0.00010
   84    0.00035
   85   -0.00469
   86    0.00050
   87   -0.00157
   88    0.01848
   89    0.00007
   90    0.00046
   91   -0.00442
   92   -0.00117
   93    0.00093
   94    0.00079
   95    0.00777
   96   -0.00551
   97   -0.00801
   98    0.00211
   99    0.00064
  100   -0.00001
  101   -0.00070
  102   -0.00529
  103    0.00125
  104   -0.00086
  105   -0.00025
  106    0.00161
  107    0.00097
  108   -0.00118
  109    0.00036
  110    0.00147
  111    0.00013
  112    0.00106
  113   -0.00008
  114    0.00001
 Ene=   -14.2705
 Spin= Alpha
 Occup= 2.0
    1    0.00002
    2    0.00098
    3    0.00009
    4    0.00077
    5   -0.00346
    6    0.00006
    7   -0.00042
    8    0.00025
    9    0.00075
   10   -0.00005
   11   -0.00517
   12    0.00103
   13    0.00046
   14   -0.00058
   15   -0.00080
   16    0.00024
   17    0.00119
   18   -0.02207
   19   -0.00051
   20    0.00074
   21    0.00003
   22   -0.00950
   23    0.01606
   24    0.01279
   25   -0.00004
   26   -0.00012
   27    0.00034
   28   -0.00045
   29    0.00062
   30   -0.00001
   31    0.00259
   32   -0.00391
   33   -0.00160
   34   -0.98495
   35   -0.11207
   36    0.08018
   37    0.00018
   38    0.00006
   39   -0.00184
   40   -0.00102
   41    0.00166
   42    0.01323
   43   -0.00006
   44   -0.00692
   45    0.00062
   46    0.00243
   47   -0.01822
   48    0.00073
   49   -0.00116
   50    0.00030
   51    0.00409
   52   -0.01039
   53    0.00560
   54    0.00112
   55    0.00174
   56    0.00014
   57    0.00132
   58   -0.00151
   59    0.00014
   60    0.00099
   61   -0.00066
   62    0.00006
   63   -0.00049
   64    0.00091
   65    0.00026
   66    0.00098
   67    0.00029
   68   -0.00153
   69   -0.00004
   70    0.00130
   71   -0.00008
   72   -0.00017
   73    0.00237
   74   -0.00000
   75    0.00015
   76    0.00021
   77   -0.00373
   78    0.00401
   79   -0.00319
   80    0.00004
   81    0.00039
   82   -0.00265
   83    0.00009
   84    0.00001
   85    0.00005
   86    0.00016
   87   -0.00038
   88   -0.00093
   89   -0.02152
   90   -0.00289
   91    0.00515
   92   -0.00025
   93    0.00010
   94    0.00007
   95    0.00011
   96    0.00019
   97   -0.00070
   98    0.00031
   99   -0.00137
  100    0.00002
  101    0.00002
  102   -0.00123
  103    0.00023
  104   -0.00013
  105   -0.00007
  106    0.00016
  107    0.00001
  108   -0.00016
  109    0.00003
  110    0.00042
  111    0.00005
  112    0.00022
  113    0.00006
  114    0.00014
 Ene=   -14.2678
 Spin= Alpha
 Occup= 2.0
    1    0.00006
    2    0.00010
    3    0.00001
    4    0.00007
    5   -0.00004
    6    0.00001
    7   -0.00006
    8   -0.00002
    9    0.00012
   10    0.00037
   11    0.00008
   12   -0.00002
   13   -0.00011
   14    0.00003
   15   -0.00014
   16   -0.00000
   17    0.00014
   18    0.00109
   19    0.00018
   20   -0.00014
   21   -0.00019
   22   -0.00018
   23   -0.00078
   24    0.00009
   25    0.00001
   26    0.00006
   27   -0.00034
   28   -0.00005
   29   -0.00001
   30   -0.00001
   31    0.00018
   32    0.00015
   33    0.00015
   34   -0.02133
   35   -0.00175
   36   -0.00378
   37   -0.00043
   38    0.00027
   39    0.00030
   40    0.00051
   41    0.00107
   42   -0.00203
   43   -0.00053
   44    0.00036
   45   -0.00017
   46   -0.00127
   47    0.00664
   48    0.00012
   49   -0.00020
   50    0.00064
   51   -0.00344
   52    0.00324
   53   -0.00708
   54    0.00074
   55   -0.00006
   56    0.00007
   57    0.00043
   58   -0.00080
   59    0.00017
   60   -0.00011
   61   -0.00040
   62    0.00049
   63   -0.00052
   64    0.00385
   65    0.00048
   66    0.00167
   67    0.00010
   68   -0.00191
   69   -0.00002
   70   -0.00082
   71   -0.00026
   72   -0.00168
   73    0.02395
   74    0.00022
   75    0.00005
   76   -0.00011
   77    0.01923
   78   -0.01639
   79    0.00940
   80    0.00002
   81   -0.00023
   82    0.00024
   83    0.00052
   84   -0.00040
   85   -0.00031
   86   -0.00404
   87    0.00331
   88   -0.00018
   89    0.98501
   90    0.11269
   91   -0.08406
   92   -0.00005
   93    0.00097
   94   -0.00083
   95    0.00361
   96   -0.00646
   97    0.00800
   98    0.00167
   99    0.00769
  100   -0.00053
  101   -0.00237
  102    0.01856
  103   -0.00121
  104    0.00098
  105    0.00012
  106   -0.00756
  107    0.00315
  108    0.00346
  109   -0.00139
  110   -0.00255
  111   -0.00126
  112   -0.00126
  113   -0.00149
  114   -0.00040
 Ene=   -10.2270
 Spin= Alpha
 Occup= 2.0
    1    0.00174
    2   -0.00383
    3    0.00357
    4    0.00274
    5   -0.02096
    6    0.00054
    7   -0.00018
    8    0.00026
    9   -0.00996
   10    0.01083
   11   -0.00443
   12    0.00107
   13   -0.00188
   14    0.00139
   15   -0.00151
   16   -0.98538
   17   -0.10539
   18    0.05455
   19   -0.00012
   20    0.00028
   21   -0.00049
   22   -0.01063
   23    0.01041
   24   -0.01514
   25   -0.00041
   26   -0.00181
   27    0.00528
   28   -0.00040
   29    0.00050
   30   -0.00073
   31   -0.00012
   32   -0.00266
   33   -0.00610
   34   -0.00030
   35   -0.00035
   36   -0.00414
   37   -0.00074
   38    0.00123
   39   -0.00083
   40    0.00419
   41   -0.00552
   42    0.00902
   43    0.00327
   44    0.00146
   45    0.00112
   46    0.00121
   47   -0.00519
   48   -0.00010
   49    0.00025
   50    0.00082
   51    0.00332
   52   -0.00689
   53   -0.00282
   54    0.00107
   55    0.00183
   56    0.00028
   57    0.00007
   58    0.00211
   59    0.00008
   60    0.00066
   61   -0.00056
   62   -0.00066
   63    0.00027
   64    0.00323
   65    0.00009
   66    0.00127
   67   -0.00017
   68   -0.00141
   69    0.00065
   70   -0.00346
   71    0.00199
   72    0.00046
   73   -0.00331
   74    0.00013
   75   -0.00019
   76    0.00000
   77    0.00042
   78    0.00161
   79   -0.00283
   80    0.00004
   81    0.00035
   82   -0.00148
   83   -0.00000
   84    0.00008
   85    0.00004
   86    0.00003
   87   -0.00045
   88   -0.00040
   89   -0.00004
   90   -0.00030
   91    0.00208
   92    0.00005
   93    0.00005
   94   -0.00001
   95   -0.00095
   96    0.00027
   97   -0.00004
   98   -0.00002
   99   -0.00050
  100    0.00003
  101    0.00004
  102    0.00007
  103   -0.00001
  104    0.00002
  105   -0.00004
  106   -0.00000
  107    0.00003
  108    0.00029
  109   -0.00004
  110   -0.00004
  111    0.00004
  112    0.00013
  113   -0.00001
  114   -0.00001
 Ene=   -10.2218
 Spin= Alpha
 Occup= 2.0
    1    0.00001
    2   -0.00004
    3   -0.00023
    4   -0.00029
    5    0.00191
    6   -0.00002
    7   -0.00009
    8    0.00002
    9    0.00074
   10   -0.00029
   11    0.00049
   12   -0.00014
   13   -0.00007
   14   -0.00008
   15   -0.00013
   16    0.00188
   17   -0.00005
   18    0.00092
   19    0.00001
   20    0.00030
   21   -0.00016
   22    0.00130
   23   -0.00270
   24    0.00048
   25    0.00000
   26   -0.00001
   27   -0.00045
   28    0.00003
   29    0.00004
   30    0.00003
   31   -0.00012
   32    0.00013
   33    0.00012
   34    0.00002
   35   -0.00015
   36   -0.00040
   37   -0.00033
   38    0.00036
   39    0.00009
   40   -0.00002
   41   -0.00141
   42    0.00021
   43   -0.00038
   44    0.00094
   45   -0.00698
   46   -0.00276
   47    0.02079
   48   -0.00059
   49    0.00027
   50    0.00046
   51    0.01677
   52   -0.00637
   53   -0.00946
   54   -0.00165
   55    0.00196
   56   -0.00223
   57   -0.00223
   58    0.00596
   59   -0.00122
   60    0.00033
   61    0.00089
   62    0.00350
   63    0.00131
   64   -0.00308
   65   -0.00092
   66   -0.00037
   67   -0.00051
   68   -0.00014
   69   -0.00021
   70    0.00206
   71    0.98528
   72    0.10554
   73   -0.05680
   74   -0.00073
   75    0.00015
   76   -0.00081
   77    0.01292
   78   -0.00508
   79   -0.02197
   80    0.00043
   81    0.00184
   82   -0.00757
   83    0.00052
   84   -0.00008
   85   -0.00121
   86   -0.00304
   87    0.00186
   88   -0.00653
   89    0.00031
   90   -0.00007
   91    0.00507
   92    0.00150
   93   -0.00098
   94   -0.00040
   95   -0.00571
   96    0.00255
   97    0.00712
   98   -0.00186
   99    0.00023
  100   -0.00070
  101   -0.00069
  102    0.00539
  103   -0.00025
  104    0.00011
  105    0.00052
  106   -0.00267
  107    0.00127
  108   -0.00205
  109    0.00024
  110   -0.00000
  111   -0.00071
  112   -0.00179
  113   -0.00043
  114    0.00015
 Ene=   -10.1704
 Spin= Alpha
 Occup= 2.0
    1    0.00052
    2    0.00076
    3    0.00226
    4    0.00174
    5   -0.00970
    6   -0.00016
    7    0.00009
    8   -0.00002
    9   -0.00194
   10    0.00359
   11   -0.00270
   12    0.00060
   13    0.00020
   14    0.00023
   15   -0.00032
   16   -0.00085
   17    0.00045
   18   -0.00187
   19    0.00101
   20   -0.00115
   21    0.00052
   22   -0.00848
   23    0.01010
   24   -0.00179
   25   -0.00007
   26   -0.00055
   27    0.00325
   28   -0.00025
   29    0.00008
   30   -0.00007
   31    0.00154
   32   -0.00158
   33   -0.00087
   34    0.00020
   35    0.00087
   36   -0.01138
   37   -0.00011
   38    0.00004
   39   -0.00075
   40   -0.00432
   41    0.00958
   42    0.00211
   43    0.00203
   44   -0.00079
   45   -0.98725
   46   -0.11802
   47    0.11328
   48    0.00045
   49   -0.00022
   50   -0.00001
   51   -0.00367
   52   -0.00555
   53   -0.00359
   54   -0.00184
   55   -0.01561
   56    0.00641
   57    0.00418
   58   -0.03055
   59   -0.00015
   60   -0.00036
   61    0.00008
   62   -0.01197
   63   -0.00880
   64    0.00758
   65    0.00218
   66   -0.00014
   67    0.00158
   68   -0.00031
   69    0.00106
   70   -0.00006
   71   -0.00637
   72    0.00207
   73   -0.02258
   74   -0.00031
   75    0.00015
   76    0.00003
   77    0.01880
   78   -0.01020
   79   -0.00499
   80   -0.00006
   81   -0.00021
   82    0.00266
   83    0.00023
   84   -0.00016
   85    0.00018
   86   -0.00295
   87    0.00158
   88    0.00123
   89    0.00007
   90    0.00106
   91   -0.00394
   92   -0.00080
   93    0.00057
   94   -0.00008
   95    0.00331
   96   -0.00288
   97    0.00196
   98    0.00026
   99   -0.00085
  100    0.00401
  101    0.00150
  102   -0.00402
  103   -0.00015
  104    0.00027
  105   -0.00032
  106    0.00197
  107   -0.00179
  108    0.00048
  109    0.00013
  110   -0.00064
  111    0.00047
  112    0.00017
  113    0.00035
  114    0.00044
 Ene=   -10.1458
 Spin= Alpha
 Occup= 2.0
    1    0.00002
    2   -0.00005
    3    0.00011
    4    0.00010
    5   -0.00105
    6   -0.00002
    7    0.00008
    8   -0.00001
    9   -0.00040
   10    0.00023
   11   -0.00019
   12    0.00004
   13    0.00007
   14    0.00005
   15    0.00004
   16   -0.00001
   17    0.00006
   18    0.00012
   19    0.00004
   20   -0.00018
   21    0.00003
   22   -0.00068
   23    0.00111
   24   -0.00104
   25   -0.00001
   26   -0.00009
   27    0.00065
   28    0.00002
   29   -0.00003
   30    0.00001
   31   -0.00006
   32   -0.00003
   33   -0.00021
   34   -0.00004
   35   -0.00025
   36    0.00136
   37   -0.00005
   38    0.00007
   39   -0.00002
   40    0.00091
   41   -0.00101
   42    0.00016
   43   -0.00008
   44    0.00006
   45   -0.00356
   46    0.00116
   47   -0.01158
   48   -0.00012
   49    0.00005
   50   -0.00006
   51   -0.00469
   52    0.00177
   53    0.00485
   54    0.00031
   55    0.00034
   56    0.00095
   57    0.00033
   58   -0.00054
   59    0.00018
   60    0.00005
   61   -0.00003
   62   -0.00002
   63   -0.00059
   64   -0.00084
   65   -0.00007
   66   -0.00033
   67   -0.00001
   68    0.00022
   69    0.00011
   70    0.00022
   71   -0.00066
   72   -0.00014
   73    0.00242
   74    0.00155
   75   -0.00089
   76   -0.00041
   77   -0.01051
   78    0.00627
   79    0.00852
   80   -0.00013
   81   -0.00109
   82    0.00541
   83   -0.00020
   84    0.00019
   85   -0.00002
   86    0.00198
   87   -0.00155
   88    0.00119
   89   -0.00008
   90    0.00038
   91   -0.00830
   92   -0.00000
   93    0.00010
   94    0.00042
   95   -0.00312
   96    0.00142
   97   -0.00291
   98    0.00167
   99   -0.00042
  100   -0.98596
  101   -0.11020
  102    0.08012
  103    0.00037
  104   -0.00077
  105   -0.00029
  106    0.00158
  107    0.00223
  108    0.00178
  109    0.00085
  110   -0.01610
  111    0.00115
  112   -0.01494
  113    0.00093
  114   -0.01828
 Ene=   -10.1178
 Spin= Alpha
 Occup= 2.0
    1   -0.00017
    2    0.01923
    3    0.98636
    4    0.11264
    5   -0.09427
    6   -0.00078
    7   -0.00045
    8    0.00056
    9    0.00045
   10    0.00701
   11   -0.00760
   12    0.00065
   13    0.01674
   14   -0.00013
   15    0.01189
   16    0.00303
   17   -0.00196
   18    0.02080
   19    0.00025
   20   -0.00071
   21    0.00025
   22   -0.01122
   23    0.01535
   24   -0.00228
   25    0.00003
   26    0.00004
   27   -0.00148
   28   -0.00002
   29    0.00013
   30    0.00026
   31    0.00146
   32   -0.00210
   33    0.00019
   34   -0.00001
   35   -0.00060
   36    0.00110
   37    0.00054
   38   -0.00081
   39   -0.00010
   40   -0.00180
   41    0.00338
   42    0.00132
   43   -0.00033
   44    0.00116
   45    0.00180
   46   -0.00106
   47    0.00395
   48    0.00026
   49   -0.00038
   50   -0.00026
   51   -0.00306
   52    0.00379
   53    0.00071
   54   -0.00051
   55    0.00003
   56   -0.00168
   57   -0.00022
   58   -0.00080
   59   -0.00012
   60   -0.00014
   61    0.00002
   62    0.00028
   63   -0.00101
   64    0.00008
   65    0.00008
   66   -0.00013
   67   -0.00004
   68   -0.00022
   69    0.00024
   70    0.00029
   71    0.00017
   72   -0.00015
   73    0.00145
   74    0.00003
   75    0.00004
   76   -0.00000
   77   -0.00057
   78   -0.00044
   79    0.00124
   80   -0.00001
   81   -0.00010
   82    0.00052
   83   -0.00004
   84   -0.00002
   85   -0.00001
   86    0.00017
   87    0.00010
   88    0.00014
   89    0.00001
   90    0.00006
   91   -0.00064
   92    0.00005
   93   -0.00005
   94    0.00000
   95    0.00006
   96    0.00008
   97   -0.00001
   98   -0.00004
   99    0.00028
  100    0.00007
  101   -0.00004
  102    0.00021
  103   -0.00001
  104   -0.00000
  105    0.00003
  106   -0.00009
  107    0.00006
  108   -0.00009
  109    0.00000
  110    0.00001
  111   -0.00003
  112   -0.00006
  113   -0.00002
  114   -0.00002
 Ene=   -10.1050
 Spin= Alpha
 Occup= 2.0
    1    0.00001
    2   -0.00028
    3    0.00165
    4   -0.00004
    5    0.00082
    6    0.00000
    7    0.00000
    8   -0.00004
    9   -0.00007
   10   -0.00015
   11    0.00080
   12   -0.00017
   13   -0.00013
   14    0.00001
   15    0.00023
   16    0.00036
   17    0.00001
   18   -0.00009
   19   -0.00014
   20    0.00040
   21    0.00021
   22    0.00090
   23   -0.00126
   24   -0.00191
   25    0.00000
   26    0.00011
   27    0.00042
   28    0.00009
   29   -0.00025
   30   -0.00004
   31   -0.00049
   32    0.00100
   33   -0.00005
   34   -0.00007
   35   -0.00122
   36    0.00076
   37    0.00005
   38    0.00081
   39   -0.00034
   40    0.00070
   41   -0.00227
   42   -0.00008
   43   -0.00029
   44   -0.00007
   45    0.00591
   46   -0.00071
   47    0.01304
   48    0.00039
   49    0.00005
   50   -0.00010
   51   -0.01257
   52   -0.00676
   53    0.00692
   54   -0.00112
   55    0.00201
   56    0.98623
   57    0.11267
   58   -0.09356
   59   -0.00014
   60   -0.00020
   61   -0.00043
   62   -0.00227
   63   -0.00208
   64    0.00311
   65   -0.00088
   66    0.01926
   67   -0.00044
   68    0.01639
   69    0.00022
   70    0.01501
   71    0.00180
   72   -0.00184
   73    0.00871
   74    0.00100
   75   -0.00004
   76   -0.00073
   77   -0.00296
   78    0.00131
   79    0.00499
   80   -0.00001
   81   -0.00008
   82    0.00073
   83   -0.00020
   84   -0.00002
   85    0.00005
   86    0.00088
   87   -0.00006
   88   -0.00033
   89    0.00005
   90    0.00032
   91   -0.00127
   92   -0.00042
   93    0.00026
   94    0.00016
   95    0.00294
   96   -0.00185
   97   -0.00082
   98    0.00074
   99   -0.00121
  100    0.00092
  101   -0.00004
  102   -0.00175
  103    0.00036
  104   -0.00023
  105   -0.00009
  106    0.00032
  107    0.00024
  108   -0.00063
  109    0.00009
  110    0.00065
  111   -0.00003
  112    0.00022
  113    0.00003
  114    0.00005
 Ene=    -1.0601
 Spin= Alpha
 Occup= 2.0
    1   -0.00097
    2    0.00041
    3    0.00166
    4   -0.00251
    5    0.00491
    6   -0.00114
    7    0.00149
    8   -0.00080
    9    0.00304
   10   -0.00413
   11    0.00082
   12   -0.00073
   13    0.00096
   14   -0.00071
   15    0.00048
   16    0.01280
   17   -0.01514
   18   -0.01396
   19   -0.00573
   20    0.00550
   21   -0.00693
   22    0.00853
   23   -0.00853
   24    0.00687
   25    0.01490
   26   -0.01359
   27   -0.04779
   28    0.00237
   29    0.00067
   30    0.01088
   31    0.00112
   32    0.00167
   33    0.01130
   34    0.01594
   35   -0.01603
   36   -0.03004
   37   -0.00206
   38    0.00333
   39   -0.00266
   40   -0.00472
   41   -0.00330
   42   -0.00198
   43   -0.00766
   44   -0.00413
   45    0.02477
   46   -0.02330
   47   -0.01246
   48   -0.01353
   49    0.00534
   50    0.01618
   51    0.04048
   52   -0.01485
   53    0.00256
   54   -0.01080
   55    0.00104
   56    0.00439
   57   -0.00811
   58    0.00929
   59   -0.00449
   60   -0.00192
   61    0.00413
   62    0.00098
   63    0.00690
   64   -0.01228
   65   -0.00347
   66   -0.00653
   67   -0.00177
   68    0.00383
   69   -0.00186
   70    0.00213
   71    0.14004
   72   -0.15343
   73   -0.15213
   74   -0.02230
   75    0.00757
   76    0.13744
   77    0.03259
   78   -0.01449
   79   -0.08971
   80    0.18891
   81   -0.17387
   82   -0.59459
   83   -0.00191
   84    0.01383
   85   -0.14358
   86   -0.00909
   87    0.01720
   88   -0.13620
   89    0.06532
   90   -0.05853
   91   -0.17126
   92    0.02309
   93   -0.02498
   94    0.02446
   95   -0.00193
   96   -0.00793
   97    0.04498
   98   -0.02612
   99    0.00293
  100    0.01700
  101   -0.01689
  102   -0.01003
  103    0.01320
  104   -0.00685
  105   -0.00342
  106   -0.00435
  107   -0.00505
  108    0.00101
  109   -0.00526
  110   -0.00608
  111   -0.00531
  112   -0.00854
  113   -0.00553
  114    0.00313
 Ene=    -1.0377
 Spin= Alpha
 Occup= 2.0
    1    0.00832
    2   -0.00751
    3   -0.01996
    4    0.02028
    5    0.00530
    6    0.01186
    7   -0.01463
    8    0.01169
    9   -0.01692
   10    0.01879
   11    0.01368
   12    0.00564
   13   -0.00874
   14    0.00644
   15    0.00086
   16   -0.13494
   17    0.14995
   18    0.14995
   19    0.04711
   20   -0.02299
   21    0.12302
   22   -0.03521
   23    0.02996
   24   -0.06358
   25   -0.19130
   26    0.17688
   27    0.59999
   28   -0.03160
   29   -0.00312
   30   -0.13451
   31   -0.02730
   32   -0.01013
   33   -0.13306
   34   -0.06226
   35    0.05517
   36    0.16459
   37   -0.01071
   38    0.01959