----- GAMESS execution script 'rungms' -----
This job is running on host multivac
under operating system Linux at Mon Jun 10 15:31:35 -03 2019
Available scratch disk space (Kbyte units) at beginning of the job is
Filesystem      1K-blocks      Used Available Use% Mounted on
/dev/sda7      1193761592 485605456 647446556  43% /
GAMESS temporary binary files will be written to /home/igorchem/programs/src
GAMESS supplementary output files will be written to /home/igorchem/programs/usrsrc
Copying input file acrolein_gam.inp to your run's scratch directory...
 
Assuming a single but multicore node.
 

 Distributed Data Interface kickoff program.
 Initiating 5 compute processes on 1 nodes to run the following command:
 /home/igorchem/programs/gamess/gamess.00.x acrolein_gam 

          ******************************************************
          *         GAMESS VERSION = 11 NOV 2017 (R3)         *
          *             FROM IOWA STATE UNIVERSITY             *
          * M.W.SCHMIDT, K.K.BALDRIDGE, J.A.BOATZ, S.T.ELBERT, *
          *   M.S.GORDON, J.H.JENSEN, S.KOSEKI, N.MATSUNAGA,   *
          *          K.A.NGUYEN, S.J.SU, T.L.WINDUS,           *
          *       TOGETHER WITH M.DUPUIS, J.A.MONTGOMERY       *
          *         J.COMPUT.CHEM.  14, 1347-1363(1993)        *
          **************** 64 BIT LINUX VERSION ****************

  SINCE 1993, STUDENTS AND POSTDOCS WORKING AT IOWA STATE UNIVERSITY
  AND ALSO IN THEIR VARIOUS JOBS AFTER LEAVING ISU HAVE MADE IMPORTANT
  CONTRIBUTIONS TO THE CODE:
     IVANA ADAMOVIC, CHRISTINE AIKENS, YURI ALEXEEV, POOJA ARORA,
     ANDREY ASADCHEV, ROB BELL, PRADIPTA BANDYOPADHYAY, JONATHAN BENTZ,
     BRETT BODE, KURT BRORSEN, CALEB CARLIN, GALINA CHABAN, WEI CHEN,
     CHEOL HO CHOI, PAUL DAY, ALBERT DEFUSCO, NUWAN DESILVA, TIM DUDLEY,
     DMITRI FEDOROV, ALEX FINDLATER, GRAHAM FLETCHER, MARK FREITAG,
     KURT GLAESEMANN, ANASTASIA GUININA,
     DAN KEMP, GRANT MERRILL, NORIYUKI MINEZAWA, JONATHAN MULLIN,
     TAKESHI NAGATA, SEAN NEDD, HEATHER NETZLOFF, BOSILJKA NJEGIC, RYAN OLSON,
     MIKE PAK, BUU PHAM,
     SPENCER PRUITT, LUKE ROSKOP, JIM SHOEMAKER, LYUDMILA SLIPCHENKO,
     TONY SMITH, SAROM SOK LEANG, JIE SONG, TETSUYA TAKETSUGU, SIMON WEBB,
     PENG XU, SOOHAENG YOO, FEDERICO ZAHARIEV

  ADDITIONAL CODE HAS BEEN PROVIDED BY COLLABORATORS IN OTHER GROUPS:
     IOWA STATE UNIVERSITY:
          JOE IVANIC, AARON WEST, LAIMUTIS BYTAUTAS, KLAUS RUEDENBERG
     UNIVERSITY OF TOKYO: KIMIHIKO HIRAO, TAKAHITO NAKAJIMA,
          TAKAO TSUNEDA, MUNEAKI KAMIYA, SUSUMU YANAGISAWA,
          KIYOSHI YAGI, MAHITO CHIBA, SEIKEN TOKURA, NAOAKI KAWAKAMI
     UNIVERSITY OF AARHUS: FRANK JENSEN
     UNIVERSITY OF IOWA: VISVALDAS KAIRYS, HUI LI
     NATIONAL INST. OF STANDARDS AND TECHNOLOGY: WALT STEVENS, DAVID GARMER
     UNIVERSITY OF PISA: BENEDETTA MENNUCCI, JACOPO TOMASI
     UNIVERSITY OF MEMPHIS: HENRY KURTZ, PRAKASHAN KORAMBATH
     UNIVERSITY OF ALBERTA: TOBY ZENG, MARIUSZ KLOBUKOWSKI
     UNIVERSITY OF NEW ENGLAND: MARK SPACKMAN
     MIE UNIVERSITY: HIROAKI UMEDA
     NAT. INST. OF ADVANCED INDUSTRIAL SCIENCE AND TECHNOLOGY: KAZUO KITAURA
     MICHIGAN STATE UNIVERSITY:
          KAROL KOWALSKI, MARTA WLOCH, JEFFREY GOUR, JESSE LUTZ,
          WEI LI, PIOTR PIECUCH
     UNIVERSITY OF SILESIA: MONIKA MUSIAL, STANISLAW KUCHARSKI
     FACULTES UNIVERSITAIRES NOTRE-DAME DE LA PAIX:
          OLIVIER QUINET, BENOIT CHAMPAGNE
     UNIVERSITY OF CALIFORNIA - SANTA BARBARA: BERNARD KIRTMAN
     INSTITUTE FOR MOLECULAR SCIENCE:
          KAZUYA ISHIMURA, MICHIO KATOUDA, AND SHIGERU NAGASE
     UNIVERSITY OF NOTRE DAME: ANNA POMOGAEVA, DAN CHIPMAN
     KYUSHU UNIVERSITY:
          HARUYUKI NAKANO,
          FENG LONG GU, JACEK KORCHOWIEC, MARCIN MAKOWSKI, AND YURIKO AOKI,
          HIROTOSHI MORI AND EISAKU MIYOSHI
     PENNSYLVANIA STATE UNIVERSITY:
          TZVETELIN IORDANOV, CHET SWALINA, JONATHAN SKONE,
          SHARON HAMMES-SCHIFFER
     WASEDA UNIVERSITY:
          MASATO KOBAYASHI, TOMOKO AKAMA, TSUGUKI TOUMA,
          TAKESHI YOSHIKAWA, YASUHIRO IKABATA, JUNJI SEINO,
          YUYA NAKAJIMA, HIROMI NAKAI
     NANJING UNIVERSITY: SHUHUA LI
     UNIVERSITY OF NEBRASKA:
          PEIFENG SU, DEJUN SI, NANDUN THELLAMUREGE, YALI WANG, HUI LI
     UNIVERSITY OF ZURICH: ROBERTO PEVERATI, KIM BALDRIDGE
     N. COPERNICUS UNIVERSITY AND JACKSON STATE UNIVERSITY:
          MARIA BARYSZ
     UNIVERSITY OF COPENHAGEN: Jimmy Kromann, CASPER STEINMANN
     TOKYO INSTITUTE OF TECHNOLOGY: HIROYA NAKATA
     NAGOYA UNIVERSITY: YOSHIO NISHIMOTO, STEPHAN IRLE
     MOSCOW STATE UNIVERSITY: VLADIMIR MIRONOV


 PARALLEL VERSION RUNNING ON        5 PROCESSORS IN        1 NODES.

 EXECUTION OF GAMESS BEGUN Mon Jun 10 15:31:35 2019

            ECHO OF THE FIRST FEW INPUT CARDS -
 INPUT CARD>! ================================================================              
 INPUT CARD>! Input file for FireFly                                                        
 INPUT CARD>! ================================================================              
 INPUT CARD> $SYSTEM MWORDS=20 $END                                                         
 INPUT CARD> $CONTRL RUNTYP=Energy $END                                                     
 INPUT CARD> $CONTRL SCFTYP=RHF $END                                                        
 INPUT CARD> $CONTRL ICHARG=0  MULT=1 nprint=3 $END                                         
 INPUT CARD> $BASIS GBASIS=N311 NGAUSS=6 $END                                               
 INPUT CARD> $BASIS NDFUNC=1 NFFUNC=1 $END                                                  
 INPUT CARD> $BASIS DIFFSP=.TRUE. $END                                                      
 INPUT CARD> $SCF DIRSCF=.TRUE. $END                                                        
 INPUT CARD> $DATA                                                                          
 INPUT CARD>Molecule specification                                                          
 INPUT CARD>C1                                                                              
 INPUT CARD>C  6.000000 0.811276 0.464703 0.000085                                          
 INPUT CARD>C  6.000000 -0.666979 0.602652 -0.000083                                        
 INPUT CARD>C  6.000000 -1.468478 -0.468578 0.000045                                        
 INPUT CARD>H  1.000000 -1.067523 1.614725 -0.000234                                        
 INPUT CARD>H  1.000000 -2.550922 -0.381565 -0.000017                                       
 INPUT CARD>H  1.000000 -1.040888 -1.467756 0.000243                                        
 INPUT CARD>H  1.000000 1.374133 1.423218 0.000372                                          
 INPUT CARD>O  8.000000 1.403786 -0.597661 -0.000081                                        
 INPUT CARD> $END                                                                           
   20000000 WORDS OF MEMORY AVAILABLE

     BASIS OPTIONS
     -------------
     GBASIS=N311         IGAUSS=       6      POLAR=POPN311 
     NDFUNC=       1     NFFUNC=       1     DIFFSP=       T
     NPFUNC=       0      DIFFS=       F     BASNAM=        


     RUN TITLE
     ---------
 Molecule specification                                                          

 THE POINT GROUP OF THE MOLECULE IS C1      
 THE ORDER OF THE PRINCIPAL AXIS IS     0

 ATOM      ATOMIC                      COORDINATES (BOHR)
           CHARGE         X                   Y                   Z
 C           6.0     1.5330893404        0.8781613357        0.0001606267
 C           6.0    -1.2604075496        1.1388471460       -0.0001568473
 C           6.0    -2.7750210390       -0.8854840239        0.0000850377
 H           1.0    -2.0173259556        3.0513877955       -0.0004421959
 H           1.0    -4.8205435961       -0.7210532965       -0.0000321253
 H           1.0    -1.9669931039       -2.7736566568        0.0004592034
 H           1.0     2.5967348407        2.6894920408        0.0007029781
 O           8.0     2.6527708854       -1.1294155235       -0.0001530678

          INTERNUCLEAR DISTANCES (ANGS.)
          ------------------------------

                1 C          2 C          3 C          4 H          5 H     

   1 C       0.0000000    1.4846777 *  2.4633903 *  2.2028246 *  3.4670658  
   2 C       1.4846777 *  0.0000000    1.3378843 *  1.0884518 *  2.1255410 *
   3 C       2.4633903 *  1.3378843 *  0.0000000    2.1215363 *  1.0859357 *
   4 H       2.2028246 *  1.0884518 *  2.1215363 *  0.0000000    2.4870960 *
   5 H       3.4670658    2.1255410 *  1.0859357 *  2.4870960 *  0.0000000  
   6 H       2.6767348 *  2.1039005 *  1.0868256 *  3.0825961    1.8601112 *
   7 H       1.1115571 *  2.1998789 *  3.4145760    2.4491548 *  4.3201040  
   8 O       1.2164232 *  2.3934951 *  2.8751631 *  3.3169293    3.9606076  

                6 H          7 H          8 O     

   1 C       2.6767348 *  1.1115571 *  1.2164232 *
   2 C       2.1039005 *  2.1998789 *  2.3934951 *
   3 C       1.0868256 *  3.4145760    2.8751631 *
   4 H       3.0825961    2.4491548 *  3.3169293  
   5 H       1.8601112 *  4.3201040    3.9606076  
   6 H       0.0000000    3.7669692    2.5948981 *
   7 H       3.7669692    0.0000000    2.0210966 *
   8 O       2.5948981 *  2.0210966 *  0.0000000  

  * ... LESS THAN  3.000


     ATOMIC BASIS SET
     ----------------
 THE CONTRACTED PRIMITIVE FUNCTIONS HAVE BEEN UNNORMALIZED
 THE CONTRACTED BASIS FUNCTIONS ARE NOW NORMALIZED TO UNITY

  SHELL TYPE  PRIMITIVE        EXPONENT          CONTRACTION COEFFICIENT(S)

 C         

      1   S       1          4563.2400000    0.001966650249
      1   S       2           682.0240000    0.015230601932
      1   S       3           154.9730000    0.076126909656
      1   S       4            44.4553000    0.260801033080
      1   S       5            13.0290000    0.616462078191
      1   S       6             1.8277300    0.221006028032

      2   L       7            20.9642000    0.114660080729    0.040248692673
      2   L       8             4.8033100    0.919999647749    0.237593956746
      2   L       9             1.4593300   -0.003030682134    0.815853851473

      3   L      10             0.4834560    1.000000000000    1.000000000000

      4   L      11             0.1455850    1.000000000000    1.000000000000

      5   L      12             0.0438000    1.000000000000    1.000000000000

      6   D      13             0.6260000    1.000000000000

      7   F      14             0.8000000    1.000000000000

 C         

      8   S      15          4563.2400000    0.001966650249
      8   S      16           682.0240000    0.015230601932
      8   S      17           154.9730000    0.076126909656
      8   S      18            44.4553000    0.260801033080
      8   S      19            13.0290000    0.616462078191
      8   S      20             1.8277300    0.221006028032

      9   L      21            20.9642000    0.114660080729    0.040248692673
      9   L      22             4.8033100    0.919999647749    0.237593956746
      9   L      23             1.4593300   -0.003030682134    0.815853851473

     10   L      24             0.4834560    1.000000000000    1.000000000000

     11   L      25             0.1455850    1.000000000000    1.000000000000

     12   L      26             0.0438000    1.000000000000    1.000000000000

     13   D      27             0.6260000    1.000000000000

     14   F      28             0.8000000    1.000000000000

 C         

     15   S      29          4563.2400000    0.001966650249
     15   S      30           682.0240000    0.015230601932
     15   S      31           154.9730000    0.076126909656
     15   S      32            44.4553000    0.260801033080
     15   S      33            13.0290000    0.616462078191
     15   S      34             1.8277300    0.221006028032

     16   L      35            20.9642000    0.114660080729    0.040248692673
     16   L      36             4.8033100    0.919999647749    0.237593956746
     16   L      37             1.4593300   -0.003030682134    0.815853851473

     17   L      38             0.4834560    1.000000000000    1.000000000000

     18   L      39             0.1455850    1.000000000000    1.000000000000

     19   L      40             0.0438000    1.000000000000    1.000000000000

     20   D      41             0.6260000    1.000000000000

     21   F      42             0.8000000    1.000000000000

 H         

     22   S      43            33.8650000    0.025493814541
     22   S      44             5.0947900    0.190373108582
     22   S      45             1.1587900    0.852161486043

     23   S      46             0.3258400    1.000000000000

     24   S      47             0.1027410    1.000000000000

 H         

     25   S      48            33.8650000    0.025493814541
     25   S      49             5.0947900    0.190373108582
     25   S      50             1.1587900    0.852161486043

     26   S      51             0.3258400    1.000000000000

     27   S      52             0.1027410    1.000000000000

 H         

     28   S      53            33.8650000    0.025493814541
     28   S      54             5.0947900    0.190373108582
     28   S      55             1.1587900    0.852161486043

     29   S      56             0.3258400    1.000000000000

     30   S      57             0.1027410    1.000000000000

 H         

     31   S      58            33.8650000    0.025493814541
     31   S      59             5.0947900    0.190373108582
     31   S      60             1.1587900    0.852161486043

     32   S      61             0.3258400    1.000000000000

     33   S      62             0.1027410    1.000000000000

 O         

     34   S      63          8588.5000000    0.001895150083
     34   S      64          1297.2300000    0.014385900631
     34   S      65           299.2960000    0.070732003103
     34   S      66            87.3771000    0.240001010530
     34   S      67            25.6789000    0.594797026097
     34   S      68             3.7400400    0.280802012320

     35   L      69            42.1175000    0.113889012440    0.036511397380
     35   L      70             9.6283700    0.920811100576    0.237152982984
     35   L      71             2.8533200   -0.003274470358    0.819701941186

     36   L      72             0.9056610    1.000000000000    1.000000000000

     37   L      73             0.2556110    1.000000000000    1.000000000000

     38   L      74             0.0845000    1.000000000000    1.000000000000

     39   D      75             1.2920000    1.000000000000

     40   F      76             1.4000000    1.000000000000

 TOTAL NUMBER OF BASIS SET SHELLS             =   40
 NUMBER OF CARTESIAN GAUSSIAN BASIS FUNCTIONS =  144
 NUMBER OF ELECTRONS                          =   30
 CHARGE OF MOLECULE                           =    0
 SPIN MULTIPLICITY                            =    1
 NUMBER OF OCCUPIED ORBITALS (ALPHA)          =   15
 NUMBER OF OCCUPIED ORBITALS (BETA )          =   15
 TOTAL NUMBER OF ATOMS                        =    8
 THE NUCLEAR REPULSION ENERGY IS      104.3857926999

     $CONTRL OPTIONS
     ---------------
 SCFTYP=RHF          RUNTYP=ENERGY       EXETYP=RUN     
 MPLEVL=       0     CITYP =NONE         CCTYP =NONE         VBTYP =NONE    
 DFTTYP=NONE         TDDFT =NONE    
 MULT  =       1     ICHARG=       0     NZVAR =       0     COORD =UNIQUE  
 PP    =NONE         RELWFN=NONE         LOCAL =NONE         NUMGRD=       F
 ISPHER=      -1     NOSYM =       0     MAXIT =      30     UNITS =ANGS    
 PLTORB=       F     MOLPLT=       F     AIMPAC=       F     FRIEND=        
 NPRINT=       3     IREST =       0     GEOM  =INPUT   
 NORMF =       0     NORMP =       0     ITOL  =      20     ICUT  =       9
 INTTYP=BEST         GRDTYP=BEST         QMTTOL= 1.0E-06

     $SYSTEM OPTIONS
     ---------------
  REPLICATED MEMORY=    20000000 WORDS (ON EVERY NODE).
 DISTRIBUTED MEMDDI=           0 MILLION WORDS IN AGGREGATE,
 MEMDDI DISTRIBUTED OVER   5 PROCESSORS IS           0 WORDS/PROCESSOR.
 TOTAL MEMORY REQUESTED ON EACH PROCESSOR=    20000000 WORDS.
 TIMLIM=      525600.00 MINUTES, OR     365.0 DAYS.
 PARALL= T  BALTYP=  DLB     KDIAG=    0  COREFL= F
 MXSEQ2=     300 MXSEQ3=     150  mem10=         0

          ----------------
          PROPERTIES INPUT
          ----------------

     MOMENTS            FIELD           POTENTIAL          DENSITY
 IEMOM =       1   IEFLD =       0   IEPOT =       0   IEDEN =       0
 WHERE =COMASS     WHERE =NUCLEI     WHERE =NUCLEI     WHERE =NUCLEI  
 OUTPUT=BOTH       OUTPUT=BOTH       OUTPUT=BOTH       OUTPUT=BOTH    
 IEMINT=       0   IEFINT=       0                     IEDINT=       0
                                                       MORB  =       0
          EXTRAPOLATION IN EFFECT
          SOSCF IN EFFECT
 ORBITAL PRINTING OPTION: NPREO=     1   144     2     1

     -------------------------------
     INTEGRAL TRANSFORMATION OPTIONS
     -------------------------------
     NWORD  =            0
     CUTOFF = 1.0E-09     MPTRAN =       0
     DIRTRF =       T     AOINTS =DUP     

          ----------------------
          INTEGRAL INPUT OPTIONS
          ----------------------
 NOPK  =       1 NORDER=       0 SCHWRZ=       T

     ------------------------------------------
     THE POINT GROUP IS C1 , NAXIS= 0, ORDER= 1
     ------------------------------------------

     DIMENSIONS OF THE SYMMETRY SUBSPACES ARE
 A   =  144

 ..... DONE SETTING UP THE RUN .....
 CPU     0: STEP CPU TIME=     0.03 TOTAL CPU TIME=          0.0 (      0.0 MIN)
 TOTAL WALL CLOCK TIME=          0.5 SECONDS, CPU UTILIZATION IS     6.38%

          ********************
          1 ELECTRON INTEGRALS
          ********************
 OVERLAP MATRIX

                      1          2          3          4          5

    1  C  1  S    1.000000
    2  C  1  S    0.878444   1.000000
    3  C  1  X   -0.000000  -0.000000   1.000000
    4  C  1  Y   -0.000000   0.000000   0.000000   1.000000
    5  C  1  Z    0.000000   0.000000   0.000000   0.000000   1.000000
    6  C  1  S    0.329179   0.418800  -0.000000   0.000000  -0.000000
    7  C  1  X    0.000000  -0.000000   0.629120   0.000000   0.000000
    8  C  1  Y    0.000000   0.000000   0.000000   0.629120   0.000000
    9  C  1  Z    0.000000  -0.000000   0.000000   0.000000   0.629120
   10  C  1  S    0.153761   0.187145  -0.000000  -0.000000  -0.000000
   11  C  1  X   -0.000000   0.000000   0.220230   0.000000   0.000000
   12  C  1  Y   -0.000000   0.000000   0.000000   0.220230   0.000000
   13  C  1  Z    0.000000   0.000000   0.000000   0.000000   0.220230
   14  C  1  S    0.065562   0.078316  -0.000000  -0.000000   0.000000
   15  C  1  X    0.000000  -0.000000   0.057350   0.000000   0.000000
   16  C  1  Y    0.000000  -0.000000   0.000000   0.057350   0.000000
   17  C  1  Z    0.000000   0.000000   0.000000   0.000000   0.057350
   18  C  1 XX    0.062320   0.062356   0.000000   0.000000  -0.000000
   19  C  1 YY    0.062320   0.062356   0.000000   0.000000  -0.000000
   20  C  1 ZZ    0.062320   0.062356   0.000000   0.000000   0.000000
   21  C  1 XY    0.000000   0.000000   0.000000   0.000000   0.000000
   22  C  1 XZ   -0.000000   0.000000  -0.000000   0.000000   0.000000
   23  C  1 YZ   -0.000000   0.000000   0.000000  -0.000000   0.000000
   24  C  1 XXX   0.000000   0.000000   0.422132   0.000000   0.000000
   25  C  1 YYY  -0.000000   0.000000   0.000000   0.422132   0.000000
   26  C  1 ZZZ   0.000000   0.000000   0.000000   0.000000   0.422132
   27  C  1 XXY  -0.000000   0.000000   0.000000   0.314639   0.000000
   28  C  1 XXZ   0.000000   0.000000   0.000000   0.000000   0.314639
   29  C  1 YYX   0.000000   0.000000   0.314639   0.000000   0.000000
   30  C  1 YYZ   0.000000   0.000000   0.000000   0.000000   0.314639
   31  C  1 ZZX   0.000000   0.000000   0.314639   0.000000   0.000000
   32  C  1 ZZY  -0.000000   0.000000   0.000000   0.314639   0.000000
   33  C  1 XYZ   0.000000   0.000000   0.000000   0.000000   0.000000
   34  C  2  S    0.000037   0.000004  -0.001184   0.000110  -0.000000
   35  C  2  S    0.000004  -0.000001  -0.000428   0.000040  -0.000000
   36  C  2  X    0.001184   0.000428  -0.022779   0.002328  -0.000003
   37  C  2  Y   -0.000110  -0.000040   0.002328   0.001953   0.000000
   38  C  2  Z    0.000000   0.000000  -0.000003   0.000000   0.002170
   39  C  2  S    0.012189   0.012997  -0.066948   0.006247  -0.000008
   40  C  2  X    0.040332   0.046079  -0.163209   0.018447  -0.000022
   41  C  2  Y   -0.003764  -0.004300   0.018447   0.032746   0.000002
   42  C  2  Z    0.000005   0.000005  -0.000022   0.000002   0.034467
   43  C  2  S    0.051477   0.061439  -0.082383   0.007688  -0.000009
   44  C  2  X    0.104720   0.127300  -0.083148   0.014972  -0.000018
   45  C  2  Y   -0.009772  -0.011879   0.014972   0.075894   0.000002
   46  C  2  Z    0.000012   0.000014  -0.000018   0.000002   0.077292
   47  C  2  S    0.046675   0.055642  -0.023980   0.002238  -0.000003
   48  C  2  X    0.053787   0.064501   0.013757   0.002544  -0.000003
   49  C  2  Y   -0.005019  -0.006019   0.002544   0.040779   0.000000
   50  C  2  Z    0.000006   0.000007  -0.000003   0.000000   0.041017
   51  C  2 XX    0.048480   0.055315  -0.211863   0.027156  -0.000033
   52  C  2 YY    0.001843   0.001251  -0.018676  -0.005642  -0.000002
   53  C  2 ZZ    0.001434   0.000776  -0.016283   0.001520   0.000007
   54  C  2 XY   -0.007604  -0.008815   0.038008   0.064389   0.000005
   55  C  2 XZ    0.000009   0.000011  -0.000046   0.000005   0.068532
   56  C  2 YZ   -0.000001  -0.000001   0.000005   0.000007  -0.006395
   57  C  2 XXX   0.047264   0.053035  -0.236146   0.032694  -0.000040
   58  C  2 YYY  -0.000430  -0.000250   0.005496   0.007374   0.000001
   59  C  2 ZZZ   0.000000   0.000000  -0.000006   0.000001   0.006953
   60  C  2 XXY  -0.009273  -0.010755   0.050350   0.079033   0.000007
   61  C  2 XXZ   0.000011   0.000013  -0.000061   0.000007   0.085124
   62  C  2 YYX   0.003995   0.002658  -0.041835  -0.010468  -0.000005
   63  C  2 YYZ   0.000000   0.000000  -0.000005  -0.000001   0.005879
   64  C  2 ZZX   0.003158   0.001669  -0.036806   0.003918   0.000013
   65  C  2 ZZY  -0.000295  -0.000156   0.003918   0.004817  -0.000001
   66  C  2 XYZ  -0.000002  -0.000002   0.000011   0.000015  -0.012921
   67  C  3  S    0.000000  -0.000000  -0.000000  -0.000000  -0.000000
   68  C  3  S   -0.000000   0.000000   0.000000   0.000000   0.000000
   69  C  3  X    0.000000  -0.000000  -0.000002  -0.000001  -0.000000
   70  C  3  Y    0.000000  -0.000000  -0.000001  -0.000000  -0.000000
   71  C  3  Z    0.000000  -0.000000  -0.000000  -0.000000   0.000000
   72  C  3  S    0.000047   0.000029  -0.000663  -0.000271  -0.000000
   73  C  3  X    0.000232   0.000161  -0.002774  -0.001226  -0.000000
   74  C  3  Y    0.000095   0.000066  -0.001226  -0.000281  -0.000000
   75  C  3  Z    0.000000   0.000000  -0.000000  -0.000000   0.000221
   76  C  3  S    0.007584   0.008719  -0.020284  -0.008304  -0.000000
   77  C  3  X    0.023745   0.027861  -0.048550  -0.024927  -0.000001
   78  C  3  Y    0.009720   0.011406  -0.024927   0.002135  -0.000000
   79  C  3  Z    0.000000   0.000000  -0.000001  -0.000000   0.012340
   80  C  3  S    0.025728   0.030562  -0.020550  -0.008413  -0.000000
   81  C  3  X    0.045720   0.054637  -0.013233  -0.014748  -0.000001
   82  C  3  Y    0.018717   0.022367  -0.014748   0.016754  -0.000000
   83  C  3  Z    0.000001   0.000001  -0.000001  -0.000000   0.022792
   84  C  3 XX    0.000123   0.000059  -0.002033  -0.000945  -0.000000
   85  C  3 YY    0.000022   0.000010  -0.000436  -0.000065  -0.000000
   86  C  3 ZZ    0.000002   0.000000  -0.000059  -0.000024   0.000000
   87  C  3 XY    0.000086   0.000042  -0.001498  -0.000414  -0.000000
   88  C  3 XZ    0.000000   0.000000  -0.000000  -0.000000   0.000239
   89  C  3 YZ    0.000000   0.000000  -0.000000  -0.000000   0.000098
   90  C  3 XXX   0.000050   0.000013  -0.001144  -0.000550  -0.000000
   91  C  3 YYY   0.000004   0.000001  -0.000128  -0.000015  -0.000000
   92  C  3 ZZZ   0.000000   0.000000  -0.000000  -0.000000   0.000005
   93  C  3 XXY   0.000044   0.000012  -0.001047  -0.000329  -0.000000
   94  C  3 XXZ   0.000000   0.000000  -0.000000  -0.000000   0.000148
   95  C  3 YYX   0.000020   0.000005  -0.000514  -0.000104  -0.000000
   96  C  3 YYZ   0.000000   0.000000  -0.000000  -0.000000   0.000028
   97  C  3 ZZX   0.000002   0.000000  -0.000075  -0.000032   0.000000
   98  C  3 ZZY   0.000001   0.000000  -0.000032  -0.000009   0.000000
   99  C  3 XYZ   0.000000   0.000000  -0.000000  -0.000000   0.000102
  100  H  4  S    0.000001   0.000000  -0.000036   0.000022  -0.000000
  101  H  4  S    0.001616   0.001618  -0.008997   0.005507  -0.000002
  102  H  4  S    0.021588   0.025485  -0.032586   0.019946  -0.000006
  103  H  5  S    0.000000  -0.000000  -0.000000  -0.000000  -0.000000
  104  H  5  S    0.000001   0.000001  -0.000017  -0.000004  -0.000000
  105  H  5  S    0.001702   0.001936  -0.004960  -0.001249  -0.000000
  106  H  6  S    0.000000  -0.000000  -0.000000  -0.000000   0.000000
  107  H  6  S    0.000150   0.000129  -0.000971  -0.001013   0.000000
  108  H  6  S    0.009509   0.011096  -0.014505  -0.015134   0.000001
  109  H  7  S    0.010268   0.009055   0.049042   0.083515   0.000025
  110  H  7  S    0.070492   0.084307   0.086642   0.147547   0.000044
  111  H  7  S    0.077896   0.093563   0.033862   0.057664   0.000017
  112  O  8  S    0.000092   0.000001   0.001776  -0.003185  -0.000000
  113  O  8  S    0.000037  -0.000002   0.001216  -0.002180  -0.000000
  114  O  8  X   -0.000731  -0.000115  -0.005286   0.016022   0.000003
  115  O  8  Y    0.001311   0.000206   0.016022  -0.025078  -0.000004
  116  O  8  Z    0.000000   0.000000   0.000003  -0.000004   0.003651
  117  O  8  S    0.011057   0.010392   0.044385  -0.079582  -0.000012
  118  O  8  X   -0.017400  -0.018780  -0.017730   0.106475   0.000017
  119  O  8  Y    0.031198   0.033672   0.106475  -0.149255  -0.000030
  120  O  8  Z    0.000005   0.000005   0.000017  -0.000030   0.041654
  121  O  8  S    0.063997   0.076484   0.067527  -0.121075  -0.000019
  122  O  8  X   -0.066926  -0.082417   0.053681   0.117632   0.000018
  123  O  8  Y    0.119997   0.147772   0.117632  -0.091626  -0.000033
  124  O  8  Z    0.000019   0.000023   0.000018  -0.000033   0.119287
  125  O  8  S    0.068145   0.081654   0.026082  -0.046764  -0.000007
  126  O  8  X   -0.043154  -0.052278   0.064041   0.028854   0.000005
  127  O  8  Y    0.077375   0.093734   0.028854   0.028399  -0.000008
  128  O  8  Z    0.000012   0.000015   0.000005  -0.000008   0.080133
  129  O  8 XX    0.008954   0.008116   0.010867  -0.083007  -0.000013
  130  O  8 YY    0.024463   0.024482   0.115165  -0.142967  -0.000032
  131  O  8 ZZ    0.001951   0.000727   0.015200  -0.027253   0.000006
  132  O  8 XY   -0.021746  -0.022947  -0.041555   0.142463   0.000027
  133  O  8 XZ   -0.000003  -0.000004  -0.000006   0.000027  -0.030682
  134  O  8 YZ    0.000006   0.000006   0.000027  -0.000040   0.055013
  135  O  8 XXX  -0.007793  -0.006786  -0.000708   0.077420   0.000012
  136  O  8 YYY   0.031160   0.032842   0.146143  -0.157282  -0.000041
  137  O  8 ZZZ   0.000001   0.000000   0.000007  -0.000013   0.014352
  138  O  8 XXY   0.021983   0.022984   0.028801  -0.154744  -0.000029
  139  O  8 XXZ   0.000003   0.000004   0.000005  -0.000029   0.031657
  140  O  8 YYX  -0.033694  -0.038604  -0.065611   0.182471   0.000040
  141  O  8 YYZ   0.000009   0.000011   0.000040  -0.000051   0.078078
  142  O  8 ZZX  -0.002583  -0.001177  -0.008588   0.034578  -0.000006
  143  O  8 ZZY   0.004631   0.002110   0.034578  -0.051300   0.000011
  144  O  8 XYZ  -0.000008  -0.000010  -0.000015   0.000050  -0.065090

                      6          7          8          9         10

    6  C  1  S    1.000000
    7  C  1  X    0.000000   1.000000
    8  C  1  Y    0.000000   0.000000   1.000000
    9  C  1  Z    0.000000   0.000000   0.000000   1.000000
   10  C  1  S    0.774697   0.000000  -0.000000   0.000000   1.000000
   11  C  1  X    0.000000   0.653461   0.000000   0.000000  -0.000000
   12  C  1  Y   -0.000000   0.000000   0.653461   0.000000   0.000000
   13  C  1  Z    0.000000   0.000000   0.000000   0.653461   0.000000
   14  C  1  S    0.410096   0.000000   0.000000   0.000000   0.774408
   15  C  1  X    0.000000   0.226365   0.000000   0.000000   0.000000
   16  C  1  Y    0.000000   0.000000   0.226365   0.000000   0.000000
   17  C  1  Z    0.000000   0.000000   0.000000   0.226365   0.000000
   18  C  1 XX    0.643446  -0.000000   0.000000  -0.000000   0.648481
   19  C  1 YY    0.643446   0.000000   0.000000  -0.000000   0.648481
   20  C  1 ZZ    0.643446   0.000000   0.000000   0.000000   0.648481
   21  C  1 XY    0.000000   0.000000   0.000000   0.000000   0.000000
   22  C  1 XZ    0.000000  -0.000000   0.000000   0.000000   0.000000
   23  C  1 YZ    0.000000   0.000000  -0.000000   0.000000   0.000000
   24  C  1 XXX   0.000000   0.892783   0.000000   0.000000   0.000000
   25  C  1 YYY  -0.000000   0.000000   0.892783   0.000000  -0.000000
   26  C  1 ZZZ   0.000000   0.000000   0.000000   0.892783   0.000000
   27  C  1 XXY  -0.000000   0.000000   0.665441   0.000000  -0.000000
   28  C  1 XXZ   0.000000   0.000000   0.000000   0.665441   0.000000
   29  C  1 YYX   0.000000   0.665441   0.000000   0.000000   0.000000
   30  C  1 YYZ   0.000000   0.000000   0.000000   0.665441   0.000000
   31  C  1 ZZX   0.000000   0.665441   0.000000   0.000000   0.000000
   32  C  1 ZZY  -0.000000   0.000000   0.665441   0.000000  -0.000000
   33  C  1 XYZ   0.000000   0.000000   0.000000   0.000000   0.000000
   34  C  2  S    0.012189  -0.040332   0.003764  -0.000005   0.051477
   35  C  2  S    0.012997  -0.046079   0.004300  -0.000005   0.061439
   36  C  2  X    0.066948  -0.163209   0.018447  -0.000022   0.082383
   37  C  2  Y   -0.006247   0.018447   0.032746   0.000002  -0.007688
   38  C  2  Z    0.000008  -0.000022   0.000002   0.034467   0.000009
   39  C  2  S    0.149153  -0.289707   0.027035  -0.000033   0.321087
   40  C  2  X    0.289707  -0.413558   0.052512  -0.000064   0.288681
   41  C  2  Y   -0.027035   0.052512   0.144253   0.000006  -0.026939
   42  C  2  Z    0.000033  -0.000064   0.000006   0.149153   0.000033
   43  C  2  S    0.321087  -0.288681   0.026939  -0.000033   0.563836
   44  C  2  X    0.526063  -0.202129   0.044137  -0.000054   0.600979
   45  C  2  Y   -0.049092   0.044137   0.266720   0.000005  -0.056083
   46  C  2  Z    0.000060  -0.000054   0.000005   0.270839   0.000068
   47  C  2  S    0.298945  -0.096472   0.009003  -0.000011   0.594108
   48  C  2  X    0.320510   0.061581   0.009652  -0.000012   0.534013
   49  C  2  Y   -0.029910   0.009652   0.164111   0.000001  -0.049833
   50  C  2  Z    0.000036  -0.000012   0.000001   0.165012   0.000061
   51  C  2 XX    0.322274  -0.451941   0.065920  -0.000080   0.365643
   52  C  2 YY    0.077309  -0.169455  -0.007932  -0.000019   0.256879
   53  C  2 ZZ    0.075157  -0.164738   0.015373   0.000010   0.255923
   54  C  2 XY   -0.039942   0.066985   0.212192   0.000010  -0.017734
   55  C  2 XZ    0.000049  -0.000082   0.000010   0.220362   0.000022
   56  C  2 YZ   -0.000005   0.000010   0.000024  -0.020564  -0.000002
   57  C  2 XXX   0.315030  -0.442811   0.071185  -0.000087   0.261889
   58  C  2 YYY  -0.015221   0.036855   0.081907   0.000004  -0.021909
   59  C  2 ZZZ   0.000018  -0.000045   0.000004   0.083285   0.000027
   60  C  2 XXY  -0.043233   0.071753   0.228746   0.000012  -0.022021
   61  C  2 XXZ   0.000053  -0.000087   0.000012   0.238515   0.000027
   62  C  2 YYX   0.123560  -0.235573  -0.005010  -0.000034   0.175348
   63  C  2 YYZ   0.000014  -0.000034  -0.000001   0.063614   0.000020
   64  C  2 ZZX   0.120575  -0.229883   0.027245   0.000007   0.174815
   65  C  2 ZZY  -0.011252   0.027245   0.059535  -0.000001  -0.016314
   66  C  2 XYZ  -0.000006   0.000012   0.000033  -0.028518  -0.000001
   67  C  3  S    0.000047  -0.000232  -0.000095  -0.000000   0.007584
   68  C  3  S    0.000029  -0.000161  -0.000066  -0.000000   0.008719
   69  C  3  X    0.000663  -0.002774  -0.001226  -0.000000   0.020284
   70  C  3  Y    0.000271  -0.001226  -0.000281  -0.000000   0.008304
   71  C  3  Z    0.000000  -0.000000  -0.000000   0.000221   0.000000
   72  C  3  S    0.005309  -0.015904  -0.006511  -0.000000   0.068564
   73  C  3  X    0.015904  -0.042330  -0.019502  -0.000001   0.095067
   74  C  3  Y    0.006511  -0.019502  -0.002675  -0.000000   0.038918
   75  C  3  Z    0.000000  -0.000001  -0.000000   0.005309   0.000002
   76  C  3  S    0.068564  -0.095067  -0.038918  -0.000002   0.206505
   77  C  3  X    0.173240  -0.182371  -0.098335  -0.000004   0.339449
   78  C  3  Y    0.070921  -0.098335   0.017578  -0.000002   0.138963
   79  C  3  Z    0.000003  -0.000004  -0.000002   0.057834   0.000006
   80  C  3  S    0.171757  -0.085480  -0.034994  -0.000001   0.373328
   81  C  3  X    0.283991  -0.046529  -0.057860  -0.000002   0.517506
   82  C  3  Y    0.116260  -0.057860   0.071120  -0.000001   0.211856
   83  C  3  Z    0.000005  -0.000002  -0.000001   0.094807   0.000009
   84  C  3 XX    0.015372  -0.042862  -0.021272  -0.000001   0.101288
   85  C  3 YY    0.004027  -0.013612  -0.001847  -0.000000   0.058721
   86  C  3 ZZ    0.001743  -0.005891  -0.002412   0.000000   0.050151
   87  C  3 XY    0.009664  -0.029441  -0.005492  -0.000001   0.036259
   88  C  3 XZ    0.000000  -0.000001  -0.000001   0.007881   0.000002
   89  C  3 YZ    0.000000  -0.000001  -0.000000   0.003226   0.000001
   90  C  3 XXX   0.012691  -0.037284  -0.019400  -0.000001   0.084438
   91  C  3 YYY   0.002200  -0.008215  -0.000586  -0.000000   0.028320
   92  C  3 ZZZ   0.000000  -0.000000  -0.000000   0.001302   0.000001
   93  C  3 XXY   0.009236  -0.029119  -0.006588  -0.000001   0.036953
   94  C  3 XXZ   0.000000  -0.000001  -0.000001   0.007532   0.000002
   95  C  3 YYX   0.006201  -0.021087  -0.004108  -0.000000   0.056142
   96  C  3 YYZ   0.000000  -0.000000  -0.000000   0.002070   0.000001
   97  C  3 ZZX   0.002908  -0.009887  -0.004445   0.000000   0.049272
   98  C  3 ZZY   0.001190  -0.004445  -0.000849   0.000000   0.020171
   99  C  3 XYZ   0.000000  -0.000001  -0.000000   0.004652   0.000001
  100  H  4  S    0.002048  -0.007174   0.004391  -0.000001   0.048472
  101  H  4  S    0.033308  -0.066211   0.040528  -0.000011   0.155327
  102  H  4  S    0.152715  -0.132150   0.080890  -0.000022   0.344241
  103  H  5  S    0.000000  -0.000002  -0.000001  -0.000000   0.001737
  104  H  5  S    0.000228  -0.000812  -0.000204  -0.000000   0.011819
  105  H  5  S    0.017454  -0.027029  -0.006803  -0.000001   0.073663
  106  H  6  S    0.000121  -0.000417  -0.000435   0.000000   0.016553
  107  H  6  S    0.006675  -0.013081  -0.013648   0.000001   0.067665
  108  H  6  S    0.075856  -0.064711  -0.067516   0.000006   0.209335
  109  H  7  S    0.176433   0.187808   0.319827   0.000096   0.260542
  110  H  7  S    0.411541   0.245084   0.417365   0.000125   0.569765
  111  H  7  S    0.456233   0.118275   0.201415   0.000060   0.749439
  112  O  8  S    0.022842   0.032714  -0.058655  -0.000009   0.050300
  113  O  8  S    0.023213   0.034499  -0.061857  -0.000010   0.053142
  114  O  8  X   -0.031837  -0.001797   0.076545   0.000012  -0.021809
  115  O  8  Y    0.057084   0.076545  -0.096350  -0.000021   0.039102
  116  O  8  Z    0.000009   0.000012  -0.000021   0.040895   0.000006
  117  O  8  S    0.175833   0.178497  -0.320043  -0.000050   0.295954
  118  O  8  X   -0.130415   0.035125   0.237374   0.000037  -0.087346
  119  O  8  Y    0.233832   0.237374  -0.258095  -0.000067   0.156611
  120  O  8  Z    0.000037   0.000037  -0.000067   0.167515   0.000024
  121  O  8  S    0.383496   0.206519  -0.370286  -0.000058   0.577662
  122  O  8  X   -0.284020   0.211868   0.274236   0.000043  -0.237328
  123  O  8  Y    0.509244   0.274236  -0.126885  -0.000077   0.425526
  124  O  8  Z    0.000080   0.000043  -0.000077   0.364817   0.000066
  125  O  8  S    0.410601   0.095118  -0.170546  -0.000027   0.713666
  126  O  8  X   -0.227518   0.239536   0.094501   0.000015  -0.293952
  127  O  8  Y    0.407937   0.094501   0.122802  -0.000026   0.527052
  128  O  8  Z    0.000064   0.000015  -0.000026   0.292242   0.000082
  129  O  8 XX    0.146301   0.072497  -0.297222  -0.000046   0.252629
  130  O  8 YY    0.226714   0.256882  -0.293353  -0.000072   0.272576
  131  O  8 ZZ    0.109994   0.124630  -0.223461  -0.000009   0.243623
  132  O  8 XY   -0.112753   0.017072   0.148292   0.000036  -0.027969
  133  O  8 XZ   -0.000018   0.000003   0.000036  -0.080775  -0.000004
  134  O  8 YZ    0.000032   0.000036  -0.000042   0.144829   0.000008
  135  O  8 XXX  -0.105689   0.038948   0.219323   0.000034  -0.078798
  136  O  8 YYY   0.228940   0.264971  -0.229055  -0.000074   0.144831
  137  O  8 ZZZ   0.000027   0.000031  -0.000056   0.122998   0.000022
  138  O  8 XXY   0.167791   0.091904  -0.227990  -0.000054   0.107694
  139  O  8 XXZ   0.000026   0.000014  -0.000054   0.120204   0.000017
  140  O  8 YYX  -0.142769   0.018146   0.193975   0.000046  -0.064486
  141  O  8 YYZ   0.000040   0.000046  -0.000054   0.183383   0.000018
  142  O  8 ZZX  -0.071373   0.009072   0.148112   0.000007  -0.058067
  143  O  8 ZZY   0.127972   0.148112  -0.173885  -0.000013   0.104114
  144  O  8 XYZ  -0.000019   0.000002   0.000026  -0.088589  -0.000002

                     11         12         13         14         15

   11  C  1  X    1.000000
   12  C  1  Y    0.000000   1.000000
   13  C  1  Z    0.000000   0.000000   1.000000
   14  C  1  S    0.000000   0.000000   0.000000   1.000000
   15  C  1  X    0.653055   0.000000   0.000000   0.000000   1.000000
   16  C  1  Y    0.000000   0.653055   0.000000  -0.000000   0.000000
   17  C  1  Z    0.000000   0.000000   0.653055   0.000000   0.000000
   18  C  1 XX    0.000000   0.000000   0.000000   0.375199   0.000000
   19  C  1 YY    0.000000   0.000000   0.000000   0.375199   0.000000
   20  C  1 ZZ    0.000000   0.000000   0.000000   0.375199   0.000000
   21  C  1 XY    0.000000   0.000000   0.000000   0.000000   0.000000
   22  C  1 XZ    0.000000   0.000000   0.000000   0.000000   0.000000
   23  C  1 YZ    0.000000   0.000000   0.000000   0.000000   0.000000
   24  C  1 XXX   0.580199  -0.000000   0.000000   0.000000   0.192592
   25  C  1 YYY   0.000000   0.580199   0.000000   0.000000   0.000000
   26  C  1 ZZZ   0.000000   0.000000   0.580199   0.000000   0.000000
   27  C  1 XXY  -0.000000   0.432455   0.000000   0.000000   0.000000
   28  C  1 XXZ   0.000000   0.000000   0.432455   0.000000   0.000000
   29  C  1 YYX   0.432455   0.000000   0.000000   0.000000   0.143549
   30  C  1 YYZ   0.000000   0.000000   0.432455   0.000000   0.000000
   31  C  1 ZZX   0.432455   0.000000   0.000000   0.000000   0.143549
   32  C  1 ZZY   0.000000   0.432455   0.000000   0.000000   0.000000
   33  C  1 XYZ   0.000000   0.000000   0.000000   0.000000   0.000000
   34  C  2  S   -0.104720   0.009772  -0.000012   0.046675  -0.053787
   35  C  2  S   -0.127300   0.011879  -0.000014   0.055642  -0.064501
   36  C  2  X   -0.083148   0.014972  -0.000018   0.023980   0.013757
   37  C  2  Y    0.014972   0.075894   0.000002  -0.002238   0.002544
   38  C  2  Z   -0.000018   0.000002   0.077292   0.000003  -0.000003
   39  C  2  S   -0.526063   0.049092  -0.000060   0.298945  -0.320510
   40  C  2  X   -0.202129   0.044137  -0.000054   0.096472   0.061581
   41  C  2  Y    0.044137   0.266720   0.000005  -0.009003   0.009652
   42  C  2  Z   -0.000054   0.000005   0.270839   0.000011  -0.000012
   43  C  2  S   -0.600979   0.056083  -0.000068   0.594108  -0.534013
   44  C  2  X   -0.076733   0.059777  -0.000073   0.292907   0.237729
   45  C  2  Y    0.059777   0.558258   0.000007  -0.027334   0.024569
   46  C  2  Z   -0.000073   0.000007   0.563836   0.000033  -0.000030
   47  C  2  S   -0.292907   0.027334  -0.000033   0.841653  -0.492060
   48  C  2  X    0.237729   0.024569  -0.000030   0.492060   0.553977
   49  C  2  Y    0.024569   0.498716   0.000003  -0.045918   0.026846
   50  C  2  Z   -0.000030   0.000003   0.501009   0.000056  -0.000033
   51  C  2 XX   -0.426511   0.059014  -0.000072   0.283996  -0.268782
   52  C  2 YY   -0.444278   0.022247  -0.000050   0.271950  -0.297189
   53  C  2 ZZ   -0.442625   0.041305  -0.000027   0.271844  -0.297074
   54  C  2 XY    0.014034   0.175433   0.000003  -0.001964  -0.001213
   55  C  2 XZ   -0.000017   0.000003   0.178295   0.000002   0.000001
   56  C  2 YZ    0.000003   0.000020  -0.016638  -0.000000   0.000000
   57  C  2 XXX  -0.175305   0.044077  -0.000054   0.082161   0.052738
   58  C  2 YYY   0.039514   0.217027   0.000004  -0.007578   0.008401
   59  C  2 ZZZ  -0.000048   0.000004   0.220044   0.000009  -0.000010
   60  C  2 XXY   0.029006   0.217681   0.000005  -0.005848   0.005798
   61  C  2 XXZ  -0.000035   0.000005   0.221387   0.000007  -0.000007
   62  C  2 YYX  -0.151736   0.018803  -0.000036   0.060542   0.036440
   63  C  2 YYZ  -0.000036   0.000002   0.164510   0.000007  -0.000008
   64  C  2 ZZX  -0.151275   0.029422  -0.000023   0.060524   0.036429
   65  C  2 ZZY   0.029422   0.161265   0.000002  -0.005648   0.006261
   66  C  2 XYZ   0.000001   0.000011  -0.009274  -0.000000  -0.000000
   67  C  3  S   -0.023745  -0.009720  -0.000000   0.025728  -0.045720
   68  C  3  S   -0.027861  -0.011406  -0.000000   0.030562  -0.054637
   69  C  3  X   -0.048550  -0.024927  -0.000001   0.020550  -0.013233
   70  C  3  Y   -0.024927   0.002135  -0.000000   0.008413  -0.014748
   71  C  3  Z   -0.000001  -0.000000   0.012340   0.000000  -0.000001
   72  C  3  S   -0.173240  -0.070921  -0.000003   0.171757  -0.283991
   73  C  3  X   -0.182371  -0.098335  -0.000004   0.085480  -0.046529
   74  C  3  Y   -0.098335   0.017578  -0.000002   0.034994  -0.057860
   75  C  3  Z   -0.000004  -0.000002   0.057834   0.000001  -0.000002
   76  C  3  S   -0.339449  -0.138963  -0.000006   0.373328  -0.517506
   77  C  3  X   -0.351477  -0.228425  -0.000010   0.283853  -0.078651
   78  C  3  Y   -0.228425   0.112992  -0.000004   0.116203  -0.161081
   79  C  3  Z   -0.000010  -0.000004   0.206505   0.000005  -0.000007
   80  C  3  S   -0.283853  -0.116203  -0.000005   0.622147  -0.560941
   81  C  3  X   -0.078651  -0.161081  -0.000007   0.560941   0.116391
   82  C  3  Y   -0.161081   0.248883  -0.000003   0.229637  -0.207045
   83  C  3  Z   -0.000007  -0.000003   0.314826   0.000010  -0.000009
   84  C  3 XX   -0.207943  -0.110598  -0.000005   0.170956  -0.251673
   85  C  3 YY   -0.156624  -0.038648  -0.000003   0.157280  -0.265068
   86  C  3 ZZ   -0.133766  -0.054761  -0.000001   0.154527  -0.260428
   87  C  3 XY   -0.074654   0.014291  -0.000002   0.011649  -0.006712
   88  C  3 XZ   -0.000003  -0.000002   0.053883   0.000000  -0.000000
   89  C  3 YZ   -0.000002   0.000000   0.022058   0.000000  -0.000000
   90  C  3 XXX  -0.161183  -0.096145  -0.000004   0.072593  -0.039188
   91  C  3 YYY  -0.078768   0.013576  -0.000001   0.029041  -0.049650
   92  C  3 ZZZ  -0.000003  -0.000001   0.040215   0.000001  -0.000002
   93  C  3 XXY  -0.082363   0.012837  -0.000002   0.023363  -0.035908
   94  C  3 XXZ  -0.000004  -0.000002   0.054914   0.000001  -0.000002
   95  C  3 YYX  -0.122000  -0.043506  -0.000003   0.053371  -0.032051
   96  C  3 YYZ  -0.000003  -0.000001   0.034154   0.000001  -0.000002
   97  C  3 ZZX  -0.107070  -0.056103  -0.000002   0.052627  -0.031604
   98  C  3 ZZY  -0.056103   0.007007  -0.000001   0.021544  -0.036833
   99  C  3 XYZ  -0.000001   0.000000   0.017684   0.000000  -0.000000
  100  H  4  S   -0.117400   0.071861  -0.000020   0.101357  -0.145445
  101  H  4  S   -0.290875   0.178046  -0.000049   0.266178  -0.348693
  102  H  4  S   -0.385880   0.236199  -0.000066   0.514540  -0.536105
  103  H  5  S   -0.007518  -0.001892  -0.000000   0.034331  -0.088157
  104  H  5  S   -0.039609  -0.009970  -0.000001   0.099071  -0.232252
  105  H  5  S   -0.147768  -0.037193  -0.000004   0.234441  -0.437127
  106  H  6  S   -0.039501  -0.041213   0.000003   0.071478  -0.101114
  107  H  6  S   -0.124917  -0.130333   0.000011   0.193509  -0.249903
  108  H  6  S   -0.231329  -0.241357   0.000020   0.399288  -0.410125
  109  H  7  S    0.189236   0.322258   0.000096   0.175024   0.075245
  110  H  7  S    0.319649   0.544345   0.000163   0.438279   0.172004
  111  H  7  S    0.251677   0.428592   0.000128   0.765025   0.238794
  112  O  8  S    0.041894  -0.075115  -0.000012   0.035311   0.016420
  113  O  8  S    0.044764  -0.080261  -0.000013   0.037150   0.017336
  114  O  8  X    0.033277   0.031862   0.000005  -0.004798   0.018261
  115  O  8  Y    0.031862  -0.006081  -0.000009   0.008604   0.003974
  116  O  8  Z    0.000005  -0.000009   0.051047   0.000001   0.000001
  117  O  8  S    0.217856  -0.390613  -0.000061   0.217913   0.097416
  118  O  8  X    0.140155   0.115283   0.000018  -0.021423   0.081846
  119  O  8  Y    0.115283  -0.002250  -0.000032   0.038412   0.017172
  120  O  8  Z    0.000018  -0.000032   0.204452   0.000006   0.000003
  121  O  8  S    0.314470  -0.563842  -0.000088   0.487667   0.195118
  122  O  8  X    0.426317   0.231650   0.000036  -0.080769   0.312361
  123  O  8  Y    0.231650   0.140169  -0.000065   0.144818   0.057942
  124  O  8  Z    0.000036  -0.000065   0.555514   0.000023   0.000009
  125  O  8  S    0.223947  -0.401535  -0.000063   0.792964   0.244763
  126  O  8  X    0.595813   0.165388   0.000026  -0.176219   0.697614
  127  O  8  Y    0.165388   0.391516  -0.000046   0.315960   0.097527
  128  O  8  Z    0.000026  -0.000046   0.688055   0.000049   0.000015
  129  O  8 XX    0.151836  -0.347834  -0.000054   0.190467   0.080505
  130  O  8 YY    0.209314  -0.299703  -0.000059   0.191980   0.087024
  131  O  8 ZZ    0.187081  -0.335434  -0.000041   0.189783   0.086028
  132  O  8 XY    0.043989   0.001996   0.000006  -0.002122   0.008095
  133  O  8 XZ    0.000007   0.000006  -0.036513  -0.000000   0.000001
  134  O  8 YZ    0.000006  -0.000001   0.065467   0.000001   0.000000
  135  O  8 XXX   0.127637   0.109349   0.000017  -0.019404   0.074170
  136  O  8 YYY   0.112093   0.001530  -0.000031   0.034876   0.015849
  137  O  8 ZZZ   0.000017  -0.000030   0.182354   0.000005   0.000002
  138  O  8 XXY   0.066592  -0.008855  -0.000023   0.025989   0.011074
  139  O  8 XXZ   0.000010  -0.000023   0.140592   0.000004   0.000002
  140  O  8 YYX   0.101033   0.072728   0.000014  -0.014601   0.055675
  141  O  8 YYZ   0.000014  -0.000020   0.150943   0.000004   0.000002
  142  O  8 ZZX   0.090977   0.080580   0.000010  -0.014447   0.055085
  143  O  8 ZZY   0.080580  -0.008561  -0.000018   0.025903   0.011771
  144  O  8 XYZ   0.000003   0.000000  -0.014514  -0.000000   0.000000

                     16         17         18         19         20

   16  C  1  Y    1.000000
   17  C  1  Z    0.000000   1.000000
   18  C  1 XX    0.000000   0.000000   1.000000
   19  C  1 YY    0.000000   0.000000   0.333333   1.000000
   20  C  1 ZZ    0.000000   0.000000   0.333333   0.333333   1.000000
   21  C  1 XY    0.000000   0.000000   0.000000   0.000000   0.000000
   22  C  1 XZ    0.000000   0.000000   0.000000   0.000000   0.000000
   23  C  1 YZ    0.000000   0.000000   0.000000   0.000000   0.000000
   24  C  1 XXX   0.000000   0.000000  -0.000000   0.000000   0.000000
   25  C  1 YYY   0.192592   0.000000  -0.000000  -0.000000  -0.000000
   26  C  1 ZZZ   0.000000   0.192592   0.000000   0.000000   0.000000
   27  C  1 XXY   0.143549   0.000000  -0.000000  -0.000000  -0.000000
   28  C  1 XXZ   0.000000   0.143549  -0.000000  -0.000000   0.000000
   29  C  1 YYX   0.000000   0.000000   0.000000   0.000000   0.000000
   30  C  1 YYZ   0.000000   0.143549  -0.000000  -0.000000   0.000000
   31  C  1 ZZX   0.000000   0.000000   0.000000   0.000000   0.000000
   32  C  1 ZZY   0.143549   0.000000  -0.000000  -0.000000  -0.000000
   33  C  1 XYZ   0.000000   0.000000   0.000000   0.000000   0.000000
   34  C  2  S    0.005019  -0.000006   0.048480   0.001843   0.001434
   35  C  2  S    0.006019  -0.000007   0.055315   0.001251   0.000776
   36  C  2  X    0.002544  -0.000003   0.211863   0.018676   0.016283
   37  C  2  Y    0.040779   0.000000  -0.027156   0.005642  -0.001520
   38  C  2  Z    0.000000   0.041017   0.000033   0.000002  -0.000007
   39  C  2  S    0.029910  -0.000036   0.322274   0.077309   0.075157
   40  C  2  X    0.009652  -0.000012   0.451941   0.169455   0.164738
   41  C  2  Y    0.164111   0.000001  -0.065920   0.007932  -0.015373
   42  C  2  Z    0.000001   0.165012   0.000080   0.000019  -0.000010
   43  C  2  S    0.049833  -0.000061   0.365643   0.256879   0.255923
   44  C  2  X    0.024569  -0.000030   0.426511   0.444278   0.442625
   45  C  2  Y    0.498716   0.000003  -0.059014  -0.022247  -0.041305
   46  C  2  Z    0.000003   0.501009   0.000072   0.000050   0.000027
   47  C  2  S    0.045918  -0.000056   0.283996   0.271950   0.271844
   48  C  2  X    0.026846  -0.000033   0.268782   0.297189   0.297074
   49  C  2  Y    0.839148   0.000003  -0.028962  -0.023854  -0.027723
   50  C  2  Z    0.000003   0.841653   0.000035   0.000034   0.000029
   51  C  2 XX    0.028962  -0.000035   0.484953   0.174063   0.166960
   52  C  2 YY    0.023854  -0.000034   0.174063   0.082748   0.029577
   53  C  2 ZZ    0.027723  -0.000029   0.166960   0.029577   0.085110
   54  C  2 XY    0.035802   0.000000  -0.087028   0.021448  -0.022401
   55  C  2 XZ    0.000000   0.036002   0.000106   0.000028  -0.000027
   56  C  2 YZ    0.000004  -0.003360  -0.000015   0.000002   0.000003
   57  C  2 XXX   0.008500  -0.000010   0.477539   0.155229   0.146305
   58  C  2 YYY   0.138150   0.000001  -0.045540  -0.002376  -0.005689
   59  C  2 ZZZ   0.000001   0.138892   0.000055   0.000007   0.000003
   60  C  2 XXY   0.106592   0.000001  -0.093870   0.033116  -0.022152
   61  C  2 XXZ   0.000001   0.107197   0.000114   0.000029  -0.000042
   62  C  2 YYX   0.005578  -0.000008   0.253687   0.130594   0.046559
   63  C  2 YYZ   0.000001   0.103556   0.000042   0.000015  -0.000008
   64  C  2 ZZX   0.006261  -0.000007   0.244553   0.047620   0.134647
   65  C  2 ZZY   0.102939   0.000001  -0.033526   0.006261  -0.012565
   66  C  2 XYZ   0.000001  -0.000594  -0.000019   0.000005   0.000006
   67  C  3  S   -0.018717  -0.000001   0.000123   0.000022   0.000002
   68  C  3  S   -0.022367  -0.000001   0.000059   0.000010   0.000000
   69  C  3  X   -0.014748  -0.000001   0.002033   0.000436   0.000059
   70  C  3  Y    0.016754  -0.000000   0.000945   0.000065   0.000024
   71  C  3  Z   -0.000000   0.022792   0.000000   0.000000  -0.000000
   72  C  3  S   -0.116260  -0.000005   0.015372   0.004027   0.001743
   73  C  3  X   -0.057860  -0.000002   0.042862   0.013612   0.005891
   74  C  3  Y    0.071120  -0.000001   0.021272   0.001847   0.002412
   75  C  3  Z   -0.000001   0.094807   0.000001   0.000000  -0.000000
   76  C  3  S   -0.211856  -0.000009   0.101288   0.058721   0.050151
   77  C  3  X   -0.161081  -0.000007   0.207943   0.156624   0.133766
   78  C  3  Y    0.248883  -0.000003   0.110598   0.038648   0.054761
   79  C  3  Z   -0.000003   0.314826   0.000005   0.000003   0.000001
   80  C  3  S   -0.229637  -0.000010   0.170956   0.157280   0.154527
   81  C  3  X   -0.207045  -0.000009   0.251673   0.265068   0.260428
   82  C  3  Y    0.537387  -0.000004   0.117948   0.093594   0.106613
   83  C  3  Z   -0.000004   0.622147   0.000005   0.000005   0.000004
   84  C  3 XX   -0.117948  -0.000005   0.043342   0.014046   0.004766
   85  C  3 YY   -0.093594  -0.000005   0.014046   0.001094   0.001113
   86  C  3 ZZ   -0.106613  -0.000004   0.004766   0.001113   0.001133
   87  C  3 XY    0.023524  -0.000000   0.033040   0.002947   0.003112
   88  C  3 XZ   -0.000000   0.031561   0.000001   0.000000  -0.000000
   89  C  3 YZ    0.000000   0.012920   0.000001   0.000000  -0.000000
   90  C  3 XXX  -0.050807  -0.000002   0.037282   0.012179   0.003212
   91  C  3 YYY   0.059093  -0.000001   0.008284   0.000307   0.000469
   92  C  3 ZZZ  -0.000001   0.078311   0.000000   0.000000   0.000000
   93  C  3 XXY   0.046944  -0.000001   0.032886   0.003084   0.002495
   94  C  3 XXZ  -0.000001   0.063295   0.000001   0.000000  -0.000000
   95  C  3 YYX  -0.033321  -0.000002   0.022264   0.001924   0.001474
   96  C  3 YYZ  -0.000001   0.059195   0.000000   0.000000  -0.000000
   97  C  3 ZZX  -0.036833  -0.000001   0.008217   0.002063   0.001632
   98  C  3 ZZY   0.043291  -0.000001   0.003933   0.000275   0.000668
   99  C  3 XYZ   0.000000   0.003493   0.000001   0.000000  -0.000000
  100  H  4  S    0.089028  -0.000025   0.005702   0.002313   0.000282
  101  H  4  S    0.213437  -0.000059   0.065286   0.035170   0.017126
  102  H  4  S    0.328153  -0.000091   0.170373   0.141875   0.124799
  103  H  5  S   -0.022189  -0.000003   0.000001   0.000000   0.000000
  104  H  5  S   -0.058458  -0.000007   0.000711   0.000112   0.000071
  105  H  5  S   -0.110025  -0.000013   0.028276   0.013999   0.013034
  106  H  6  S   -0.105497   0.000009   0.000191   0.000207   0.000010
  107  H  6  S   -0.260737   0.000021   0.010893   0.011600   0.002918
  108  H  6  S   -0.427905   0.000035   0.081582   0.083475   0.060213
  109  H  7  S    0.128137   0.000038   0.156507   0.350191   0.054569
  110  H  7  S    0.292914   0.000088   0.341557   0.472340   0.272724
  111  H  7  S    0.406654   0.000122   0.402978   0.427276   0.390190
  112  O  8  S   -0.029440  -0.000005   0.022697   0.069161   0.001718
  113  O  8  S   -0.031084  -0.000005   0.023504   0.073474   0.000942
  114  O  8  X    0.003974   0.000001   0.012411  -0.110834  -0.005285
  115  O  8  Y    0.013352  -0.000001   0.068343   0.108129   0.009475
  116  O  8  Z   -0.000001   0.020477   0.000011   0.000031  -0.000013
  117  O  8  S   -0.174667  -0.000027   0.152450   0.345971   0.065074
  118  O  8  X    0.017172   0.000003   0.031217  -0.301341  -0.056679
  119  O  8  Y    0.060634  -0.000005   0.238080   0.246251   0.101625
  120  O  8  Z   -0.000005   0.091423   0.000037   0.000084  -0.000030
  121  O  8  S   -0.349844  -0.000055   0.322121   0.433920   0.271643
  122  O  8  X    0.057942   0.000009  -0.080620  -0.348836  -0.218379
  123  O  8  Y    0.240788  -0.000016   0.464310   0.305699   0.391551
  124  O  8  Z   -0.000016   0.344677   0.000073   0.000098   0.000011
  125  O  8  S   -0.438857  -0.000069   0.366613   0.386571   0.357602
  126  O  8  X    0.097527   0.000015  -0.154897  -0.221714  -0.205099
  127  O  8  Y    0.577143  -0.000027   0.377007   0.298252   0.367740
  128  O  8  Z   -0.000027   0.752008   0.000059   0.000062   0.000042
  129  O  8 XX   -0.154803  -0.000024   0.074076   0.347609   0.043368
  130  O  8 YY   -0.145575  -0.000024   0.241546   0.275864   0.075905
  131  O  8 ZZ   -0.154247  -0.000022   0.091255   0.229855   0.086030
  132  O  8 XY   -0.003326   0.000000   0.043141  -0.177365  -0.045623
  133  O  8 XZ    0.000000  -0.005051   0.000007  -0.000057   0.000022
  134  O  8 YZ    0.000001   0.009057   0.000041   0.000050  -0.000040
  135  O  8 XXX   0.015811   0.000002   0.018720  -0.288744  -0.032819
  136  O  8 YYY   0.055181  -0.000004   0.263712   0.198771   0.076981
  137  O  8 ZZZ  -0.000004   0.082713   0.000027   0.000070  -0.000012
  138  O  8 XXY   0.040680  -0.000003   0.103775   0.242506   0.056067
  139  O  8 XXZ  -0.000003   0.061856   0.000016   0.000077  -0.000030
  140  O  8 YYX   0.011161   0.000002   0.056430  -0.222538  -0.053889
  141  O  8 YYZ  -0.000003   0.062311   0.000052   0.000062  -0.000052
  142  O  8 ZZX   0.011771   0.000002   0.022050  -0.185267  -0.063172
  143  O  8 ZZY   0.040544  -0.000003   0.129340   0.163305   0.113268
  144  O  8 XYZ  -0.000000  -0.000638   0.000009  -0.000038   0.000031

                     21         22         23         24         25

   21  C  1 XY    1.000000
   22  C  1 XZ    0.000000   1.000000
   23  C  1 YZ    0.000000   0.000000   1.000000
   24  C  1 XXX  -0.000000  -0.000000   0.000000   1.000000
   25  C  1 YYY   0.000000   0.000000  -0.000000   0.000000   1.000000
   26  C  1 ZZZ   0.000000   0.000000  -0.000000   0.000000   0.000000
   27  C  1 XXY   0.000000   0.000000  -0.000000   0.000000   0.447214
   28  C  1 XXZ   0.000000   0.000000  -0.000000   0.000000   0.000000
   29  C  1 YYX  -0.000000  -0.000000   0.000000   0.447214   0.000000
   30  C  1 YYZ   0.000000   0.000000  -0.000000   0.000000   0.000000
   31  C  1 ZZX  -0.000000   0.000000   0.000000   0.447214   0.000000
   32  C  1 ZZY   0.000000   0.000000   0.000000   0.000000   0.447214
   33  C  1 XYZ  -0.000000  -0.000000   0.000000   0.000000   0.000000
   34  C  2  S   -0.007604   0.000009  -0.000001  -0.047264   0.000430
   35  C  2  S   -0.008815   0.000011  -0.000001  -0.053035   0.000250
   36  C  2  X   -0.038008   0.000046  -0.000005  -0.236146   0.005496
   37  C  2  Y   -0.064389  -0.000005  -0.000007   0.032694   0.007374
   38  C  2  Z   -0.000005  -0.068532   0.006395  -0.000040   0.000001
   39  C  2  S   -0.039942   0.000049  -0.000005  -0.315030   0.015221
   40  C  2  X   -0.066985   0.000082  -0.000010  -0.442811   0.036855
   41  C  2  Y   -0.212192  -0.000010  -0.000024   0.071185   0.081907
   42  C  2  Z   -0.000010  -0.220362   0.020564  -0.000087   0.000004
   43  C  2  S   -0.017734   0.000022  -0.000002  -0.261889   0.021909
   44  C  2  X   -0.014034   0.000017  -0.000003  -0.175305   0.039514
   45  C  2  Y   -0.175433  -0.000003  -0.000020   0.044077   0.217027
   46  C  2  Z   -0.000003  -0.178295   0.016638  -0.000054   0.000004
   47  C  2  S   -0.001964   0.000002  -0.000000  -0.082161   0.007578
   48  C  2  X    0.001213  -0.000001  -0.000000   0.052738   0.008401
   49  C  2  Y   -0.035802  -0.000000  -0.000004   0.008500   0.138150
   50  C  2  Z   -0.000000  -0.036002   0.003360  -0.000010   0.000001
   51  C  2 XX   -0.087028   0.000106  -0.000015  -0.477539   0.045540
   52  C  2 YY    0.021448   0.000028   0.000002  -0.155229   0.002376
   53  C  2 ZZ   -0.022401  -0.000027   0.000003  -0.146305   0.005689
   54  C  2 XY   -0.316593  -0.000017  -0.000045   0.099858   0.131824
   55  C  2 XZ   -0.000017  -0.330660   0.038799  -0.000122   0.000008
   56  C  2 YZ   -0.000045   0.038799   0.081490   0.000019   0.000015
   57  C  2 XXX  -0.099858   0.000122  -0.000019  -0.479382   0.047050
   58  C  2 YYY  -0.131824  -0.000008  -0.000015   0.047050   0.041536
   59  C  2 ZZZ  -0.000008  -0.133287   0.012438  -0.000056   0.000002
   60  C  2 XXY  -0.352306  -0.000022  -0.000057   0.109891   0.138856
   61  C  2 XXZ  -0.000022  -0.369965   0.049034  -0.000134   0.000009
   62  C  2 YYX   0.021921   0.000052   0.000003  -0.242626   0.010786
   63  C  2 YYZ   0.000003  -0.103057  -0.004892  -0.000044   0.000001
   64  C  2 ZZX  -0.041544  -0.000029   0.000003  -0.230116   0.011382
   65  C  2 ZZY  -0.094604   0.000003   0.000006   0.034445   0.019171
   66  C  2 XYZ  -0.000065   0.056306   0.128220   0.000026   0.000024
   67  C  3  S    0.000086   0.000000   0.000000  -0.000050  -0.000004
   68  C  3  S    0.000042   0.000000   0.000000  -0.000013  -0.000001
   69  C  3  X    0.001498   0.000000   0.000000  -0.001144  -0.000128
   70  C  3  Y    0.000414   0.000000   0.000000  -0.000550  -0.000015
   71  C  3  Z    0.000000  -0.000239  -0.000098  -0.000000  -0.000000
   72  C  3  S    0.009664   0.000000   0.000000  -0.012691  -0.002200
   73  C  3  X    0.029441   0.000001   0.000001  -0.037284  -0.008215
   74  C  3  Y    0.005492   0.000001   0.000000  -0.019400  -0.000586
   75  C  3  Z    0.000001  -0.007881  -0.003226  -0.000001  -0.000000
   76  C  3  S    0.036259   0.000002   0.000001  -0.084438  -0.028320
   77  C  3  X    0.074654   0.000003   0.000002  -0.161183  -0.078768
   78  C  3  Y   -0.014291   0.000002  -0.000000  -0.096145   0.013576
   79  C  3  Z    0.000002  -0.053883  -0.022058  -0.000004  -0.000001
   80  C  3  S    0.011649   0.000000   0.000000  -0.072593  -0.029041
   81  C  3  X    0.006712   0.000000   0.000000  -0.039188  -0.049650
   82  C  3  Y   -0.023524   0.000000  -0.000000  -0.050807   0.059093
   83  C  3  Z    0.000000  -0.031561  -0.012920  -0.000002  -0.000001
   84  C  3 XX    0.033040   0.000001   0.000001  -0.037282  -0.008284
   85  C  3 YY    0.002947   0.000000   0.000000  -0.012179  -0.000307
   86  C  3 ZZ    0.003112  -0.000000  -0.000000  -0.003212  -0.000469
   87  C  3 XY    0.011396   0.000001   0.000000  -0.030531  -0.001163
   88  C  3 XZ    0.000001  -0.012032  -0.005389  -0.000001  -0.000000
   89  C  3 YZ    0.000000  -0.005389  -0.001073  -0.000001  -0.000000
   90  C  3 XXX   0.030531   0.000001   0.000001  -0.031308  -0.006827
   91  C  3 YYY   0.001163   0.000000   0.000000  -0.006827  -0.000048
   92  C  3 ZZZ   0.000000  -0.001616  -0.000661  -0.000000  -0.000000
   93  C  3 XXY   0.013747   0.000001   0.000000  -0.030196  -0.001297
   94  C  3 XXZ   0.000001  -0.011604  -0.005522  -0.000001  -0.000000
   95  C  3 YYX   0.006791   0.000001   0.000000  -0.019448  -0.000657
   96  C  3 YYZ   0.000000  -0.003263  -0.000564  -0.000000  -0.000000
   97  C  3 ZZX   0.005934  -0.000000  -0.000000  -0.005575  -0.000855
   98  C  3 ZZY   0.001427  -0.000000  -0.000000  -0.002781  -0.000082
   99  C  3 XYZ   0.000000  -0.008042  -0.001934  -0.000001  -0.000000
  100  H  4  S   -0.005747   0.000002  -0.000001  -0.003693   0.001055
  101  H  4  S   -0.051059   0.000014  -0.000009  -0.056691   0.025107
  102  H  4  S   -0.048317   0.000013  -0.000008  -0.113896   0.065816
  103  H  5  S    0.000000   0.000000   0.000000  -0.000000  -0.000000
  104  H  5  S    0.000279   0.000000   0.000000  -0.000534  -0.000044
  105  H  5  S    0.006645   0.000001   0.000000  -0.023724  -0.004633
  106  H  6  S    0.000328  -0.000000  -0.000000  -0.000071  -0.000079
  107  H  6  S    0.014412  -0.000001  -0.000001  -0.008156  -0.008838
  108  H  6  S    0.038617  -0.000003  -0.000003  -0.052805  -0.055520
  109  H  7  S    0.300675   0.000090   0.000153   0.119063   0.345080
  110  H  7  S    0.203027   0.000061   0.000104   0.201924   0.387250
  111  H  7  S    0.037720   0.000011   0.000019   0.101591   0.175878
  112  O  8  S   -0.065151  -0.000010   0.000018   0.013853  -0.068837
  113  O  8  S   -0.070068  -0.000011   0.000020   0.013743  -0.073054
  114  O  8  X    0.023504   0.000004  -0.000029   0.014324   0.135024
  115  O  8  Y   -0.139058  -0.000029   0.000039   0.054601  -0.112523
  116  O  8  Z   -0.000029   0.043758  -0.078458   0.000009  -0.000038
  117  O  8  S   -0.271351  -0.000042   0.000076   0.114477  -0.335586
  118  O  8  X   -0.018309  -0.000003  -0.000066   0.054609   0.335436
  119  O  8  Y   -0.281739  -0.000066   0.000079   0.205164  -0.227748
  120  O  8  Z   -0.000066   0.142029  -0.254656   0.000032  -0.000094
  121  O  8  S   -0.156761  -0.000024   0.000044   0.170642  -0.339291
  122  O  8  X   -0.150897  -0.000024  -0.000035   0.184679   0.291120
  123  O  8  Y   -0.071512  -0.000035   0.000020   0.262521  -0.092364
  124  O  8  Z   -0.000035   0.154446  -0.276920   0.000041  -0.000082
  125  O  8  S   -0.027984  -0.000004   0.000008   0.081249  -0.147840
  126  O  8  X   -0.069928  -0.000011  -0.000004   0.205137   0.087044
  127  O  8  Y    0.019175  -0.000004  -0.000005   0.085771   0.108021
  128  O  8  Z   -0.000004   0.047952  -0.085977   0.000013  -0.000024
  129  O  8 XX   -0.105576  -0.000016   0.000082   0.045243  -0.366552
  130  O  8 YY   -0.326082  -0.000080   0.000091   0.212601  -0.243685
  131  O  8 ZZ   -0.194341  -0.000001   0.000002   0.061339  -0.207434
  132  O  8 XY    0.011831   0.000003  -0.000061   0.066211   0.200847
  133  O  8 XZ    0.000003  -0.004931   0.163094   0.000010   0.000077
  134  O  8 YZ   -0.000061   0.163094  -0.206395   0.000041  -0.000056
  135  O  8 XXX  -0.044151  -0.000007  -0.000069   0.032101   0.330478
  136  O  8 YYY  -0.299844  -0.000091   0.000084   0.243477  -0.170689
  137  O  8 ZZZ  -0.000060   0.109435  -0.196216   0.000021  -0.000074
  138  O  8 XXY  -0.119824  -0.000026   0.000084   0.077147  -0.253478
  139  O  8 XXZ  -0.000026   0.048182  -0.217180   0.000012  -0.000096
  140  O  8 YYX   0.020606   0.000005  -0.000074   0.085916   0.233650
  141  O  8 YYZ  -0.000074   0.208744  -0.243486   0.000053  -0.000065
  142  O  8 ZZX   0.012377   0.000000  -0.000005   0.025685   0.198147
  143  O  8 ZZY  -0.202851  -0.000005   0.000006   0.101859  -0.146568
  144  O  8 XYZ   0.000004  -0.009586   0.157103   0.000016   0.000052

                     26         27         28         29         30

   26  C  1 ZZZ   1.000000
   27  C  1 XXY   0.000000   1.000000
   28  C  1 XXZ   0.447214   0.000000   1.000000
   29  C  1 YYX   0.000000   0.000000   0.000000   1.000000
   30  C  1 YYZ   0.447214   0.000000   0.333333   0.000000   1.000000
   31  C  1 ZZX   0.000000   0.000000   0.000000   0.333333   0.000000
   32  C  1 ZZY   0.000000   0.333333   0.000000   0.000000   0.000000
   33  C  1 XYZ   0.000000   0.000000   0.000000   0.000000   0.000000
   34  C  2  S   -0.000000   0.009273  -0.000011  -0.003995  -0.000000
   35  C  2  S   -0.000000   0.010755  -0.000013  -0.002658  -0.000000
   36  C  2  X   -0.000006   0.050350  -0.000061  -0.041835  -0.000005
   37  C  2  Y    0.000001   0.079033   0.000007  -0.010468  -0.000001
   38  C  2  Z    0.006953   0.000007   0.085124  -0.000005   0.005879
   39  C  2  S   -0.000018   0.043233  -0.000053  -0.123560  -0.000014
   40  C  2  X   -0.000045   0.071753  -0.000087  -0.235573  -0.000034
   41  C  2  Y    0.000004   0.228746   0.000012  -0.005010  -0.000001
   42  C  2  Z    0.083285   0.000012   0.238515  -0.000034   0.063614
   43  C  2  S   -0.000027   0.022021  -0.000027  -0.175348  -0.000020
   44  C  2  X   -0.000048   0.029006  -0.000035  -0.151736  -0.000036
   45  C  2  Y    0.000004   0.217681   0.000005   0.018803   0.000002
   46  C  2  Z    0.220044   0.000005   0.221387  -0.000036   0.164510
   47  C  2  S   -0.000009   0.005848  -0.000007  -0.060542  -0.000007
   48  C  2  X   -0.000010   0.005798  -0.000007   0.036440  -0.000008
   49  C  2  Y    0.000001   0.106592   0.000001   0.005578   0.000001
   50  C  2  Z    0.138892   0.000001   0.107197  -0.000008   0.103556
   51  C  2 XX   -0.000055   0.093870  -0.000114  -0.253687  -0.000042
   52  C  2 YY   -0.000007  -0.033116  -0.000029  -0.130594  -0.000015
   53  C  2 ZZ   -0.000003   0.022152   0.000042  -0.046559   0.000008
   54  C  2 XY    0.000008   0.352306   0.000022  -0.021921  -0.000003
   55  C  2 XZ    0.133287   0.000022   0.369965  -0.000052   0.103057
   56  C  2 YZ   -0.012438   0.000057  -0.049034  -0.000003   0.004892
   57  C  2 XXX  -0.000056   0.109891  -0.000134  -0.242626  -0.000044
   58  C  2 YYY   0.000002   0.138856   0.000009   0.010786   0.000001
   59  C  2 ZZZ   0.042911   0.000009   0.138993  -0.000014   0.020234
   60  C  2 XXY   0.000009   0.398854   0.000028  -0.041314  -0.000006
   61  C  2 XXZ   0.138993   0.000028   0.421784  -0.000056   0.109232
   62  C  2 YYX  -0.000014  -0.041314  -0.000056  -0.217044  -0.000029
   63  C  2 YYZ   0.020234  -0.000006   0.109232  -0.000029   0.041398
   64  C  2 ZZX  -0.000014   0.043689   0.000053  -0.079069   0.000011
   65  C  2 ZZY   0.000001   0.097967  -0.000007  -0.007880   0.000001
   66  C  2 XYZ  -0.019364   0.000087  -0.075672  -0.000008   0.013648
   67  C  3  S   -0.000000  -0.000044  -0.000000  -0.000020  -0.000000
   68  C  3  S   -0.000000  -0.000012  -0.000000  -0.000005  -0.000000
   69  C  3  X   -0.000000  -0.001047  -0.000000  -0.000514  -0.000000
   70  C  3  Y   -0.000000  -0.000329  -0.000000  -0.000104  -0.000000
   71  C  3  Z    0.000005  -0.000000   0.000148  -0.000000   0.000028
   72  C  3  S   -0.000000  -0.009236  -0.000000  -0.006201  -0.000000
   73  C  3  X   -0.000000  -0.029119  -0.000001  -0.021087  -0.000000
   74  C  3  Y   -0.000000  -0.006588  -0.000001  -0.004108  -0.000000
   75  C  3  Z    0.001302  -0.000001   0.007532  -0.000000   0.002070
   76  C  3  S   -0.000001  -0.036953  -0.000002  -0.056142  -0.000001
   77  C  3  X   -0.000003  -0.082363  -0.000004  -0.122000  -0.000003
   78  C  3  Y   -0.000001   0.012837  -0.000002  -0.043506  -0.000001
   79  C  3  Z    0.040215  -0.000002   0.054914  -0.000003   0.034154
   80  C  3  S   -0.000001  -0.023363  -0.000001  -0.053371  -0.000001
   81  C  3  X   -0.000002  -0.035908  -0.000002  -0.032051  -0.000002
   82  C  3  Y   -0.000001   0.046944  -0.000001  -0.033321  -0.000001
   83  C  3  Z    0.078311  -0.000001   0.063295  -0.000002   0.059195
   84  C  3 XX   -0.000000  -0.032886  -0.000001  -0.022264  -0.000000
   85  C  3 YY   -0.000000  -0.003084  -0.000000  -0.001924  -0.000000
   86  C  3 ZZ   -0.000000  -0.002495   0.000000  -0.001474   0.000000
   87  C  3 XY   -0.000000  -0.013747  -0.000001  -0.006791  -0.000000
   88  C  3 XZ    0.001616  -0.000001   0.011604  -0.000001   0.003263
   89  C  3 YZ    0.000661  -0.000000   0.005522  -0.000000   0.000564
   90  C  3 XXX  -0.000000  -0.030196  -0.000001  -0.019448  -0.000000
   91  C  3 YYY  -0.000000  -0.001297  -0.000000  -0.000657  -0.000000
   92  C  3 ZZZ   0.000172  -0.000000   0.001219  -0.000000   0.000268
   93  C  3 XXY  -0.000000  -0.016533  -0.000001  -0.007182  -0.000000
   94  C  3 XXZ   0.001219  -0.000001   0.011108  -0.000001   0.003169
   95  C  3 YYX  -0.000000  -0.007182  -0.000001  -0.003346  -0.000000
   96  C  3 YYZ   0.000268  -0.000000   0.003169  -0.000000   0.000242
   97  C  3 ZZX  -0.000000  -0.004825   0.000000  -0.002769   0.000000
   98  C  3 ZZY  -0.000000  -0.001352   0.000000  -0.000519   0.000000
   99  C  3 XYZ   0.000810  -0.000001   0.008358  -0.000000   0.000898
  100  H  4  S   -0.000000   0.004560  -0.000001  -0.003044  -0.000001
  101  H  4  S   -0.000005   0.048735  -0.000014  -0.044572  -0.000008
  102  H  4  S   -0.000018   0.061262  -0.000017  -0.085835  -0.000015
  103  H  5  S   -0.000000  -0.000000  -0.000000  -0.000000  -0.000000
  104  H  5  S   -0.000000  -0.000244  -0.000000  -0.000167  -0.000000
  105  H  5  S   -0.000001  -0.006581  -0.000001  -0.014255  -0.000000
  106  H  6  S    0.000000  -0.000149   0.000000  -0.000154   0.000000
  107  H  6  S    0.000000  -0.011862   0.000001  -0.012072   0.000001
  108  H  6  S    0.000004  -0.048224   0.000004  -0.047132   0.000004
  109  H  7  S    0.000038   0.262789   0.000079   0.341192   0.000174
  110  H  7  S    0.000096   0.290341   0.000087   0.227460   0.000116
  111  H  7  S    0.000051   0.131204   0.000039   0.080819   0.000041
  112  O  8  S   -0.000001  -0.048127  -0.000008   0.081712  -0.000023
  113  O  8  S   -0.000000  -0.050951  -0.000008   0.088792  -0.000025
  114  O  8  X    0.000003  -0.007506  -0.000001  -0.056606   0.000043
  115  O  8  Y   -0.000005  -0.136650  -0.000027   0.172325  -0.000048
  116  O  8  Z    0.006489  -0.000027   0.033374   0.000043   0.096578
  117  O  8  S   -0.000023  -0.240710  -0.000038   0.296788  -0.000083
  118  O  8  X    0.000023  -0.006370  -0.000001  -0.018126   0.000083
  119  O  8  Y   -0.000041  -0.305405  -0.000067   0.284927  -0.000080
  120  O  8  Z    0.076633  -0.000067   0.125991   0.000083   0.278528
  121  O  8  S   -0.000045  -0.250483  -0.000039   0.181269  -0.000051
  122  O  8  X    0.000039   0.096031   0.000015   0.164680   0.000044
  123  O  8  Y   -0.000070  -0.138567  -0.000060   0.159980  -0.000045
  124  O  8  Z    0.286614  -0.000060   0.246783   0.000044   0.320213
  125  O  8  S   -0.000023  -0.110037  -0.000017   0.064068  -0.000018
  126  O  8  X    0.000013   0.051372   0.000008   0.159120   0.000011
  127  O  8  Y   -0.000024   0.072394  -0.000018   0.054219  -0.000015
  128  O  8  Z    0.247955  -0.000018   0.188556   0.000011   0.196841
  129  O  8 XX   -0.000018  -0.115428  -0.000018   0.107767  -0.000101
  130  O  8 YY   -0.000036  -0.328722  -0.000080   0.324430  -0.000091
  131  O  8 ZZ   -0.000018  -0.147567   0.000005   0.203840   0.000014
  132  O  8 XY    0.000025  -0.020117  -0.000004  -0.052927   0.000077
  133  O  8 XZ   -0.039465  -0.000004   0.006745  -0.000015  -0.218613
  134  O  8 YZ    0.070761  -0.000074   0.158263   0.000077   0.221615
  135  O  8 XXX   0.000015  -0.001918  -0.000000   0.029756   0.000093
  136  O  8 YYY  -0.000039  -0.327200  -0.000094   0.284278  -0.000080
  137  O  8 ZZZ   0.057042  -0.000053   0.082495   0.000075   0.208706
  138  O  8 XXY  -0.000028  -0.146749  -0.000030   0.119495  -0.000099
  139  O  8 XXZ   0.044117  -0.000030   0.047283   0.000033   0.269029
  140  O  8 YYX   0.000031  -0.025506  -0.000006  -0.068087   0.000088
  141  O  8 YYZ   0.085329  -0.000087   0.205674   0.000088   0.246262
  142  O  8 ZZX   0.000017  -0.011583   0.000000  -0.043010  -0.000008
  143  O  8 ZZY  -0.000030  -0.190837   0.000006   0.203722   0.000008
  144  O  8 XYZ  -0.057786  -0.000006   0.011464  -0.000016  -0.201633

                     31         32         33         34         35

   31  C  1 ZZX   1.000000
   32  C  1 ZZY   0.000000   1.000000
   33  C  1 XYZ   0.000000   0.000000   1.000000
   34  C  2  S   -0.003158   0.000295   0.000002   1.000000
   35  C  2  S   -0.001669   0.000156   0.000002   0.878444   1.000000
   36  C  2  X   -0.036806   0.003918   0.000011   0.000000  -0.000000
   37  C  2  Y    0.003918   0.004817   0.000015   0.000000   0.000000
   38  C  2  Z    0.000013  -0.000001  -0.012921  -0.000000  -0.000000
   39  C  2  S   -0.120575   0.011252   0.000006   0.329179   0.418800
   40  C  2  X   -0.229883   0.027245   0.000012   0.000000   0.000000
   41  C  2  Y    0.027245   0.059535   0.000033   0.000000   0.000000
   42  C  2  Z    0.000007  -0.000001  -0.028518  -0.000000   0.000000
   43  C  2  S   -0.174815   0.016314   0.000001   0.153761   0.187145
   44  C  2  X   -0.151275   0.029422   0.000001   0.000000   0.000000
   45  C  2  Y    0.029422   0.161265   0.000011  -0.000000   0.000000
   46  C  2  Z   -0.000023   0.000002  -0.009274   0.000000  -0.000000
   47  C  2  S   -0.060524   0.005648   0.000000   0.065562   0.078316
   48  C  2  X    0.036429   0.006261  -0.000000  -0.000000   0.000000
   49  C  2  Y    0.006261   0.102939   0.000001  -0.000000   0.000000
   50  C  2  Z   -0.000007   0.000001  -0.000594  -0.000000  -0.000000
   51  C  2 XX   -0.244553   0.033526   0.000019   0.062320   0.062356
   52  C  2 YY   -0.047620  -0.006261  -0.000005   0.062320   0.062356
   53  C  2 ZZ   -0.134647   0.012565  -0.000006   0.062320   0.062356
   54  C  2 XY    0.041544   0.094604   0.000065  -0.000000   0.000000
   55  C  2 XZ    0.000029  -0.000003  -0.056306   0.000000   0.000000
   56  C  2 YZ   -0.000003  -0.000006  -0.128220  -0.000000   0.000000
   57  C  2 XXX  -0.230116   0.034445   0.000026   0.000000  -0.000000
   58  C  2 YYY   0.011382   0.019171   0.000024  -0.000000   0.000000
   59  C  2 ZZZ  -0.000014   0.000001  -0.019364   0.000000   0.000000
   60  C  2 XXY   0.043689   0.097967   0.000087  -0.000000   0.000000
   61  C  2 XXZ   0.000053  -0.000007  -0.075672   0.000000  -0.000000
   62  C  2 YYX  -0.079069  -0.007880  -0.000008   0.000000  -0.000000
   63  C  2 YYZ   0.000011   0.000001   0.013648   0.000000  -0.000000
   64  C  2 ZZX  -0.224977   0.024999  -0.000009   0.000000  -0.000000
   65  C  2 ZZY   0.024999   0.040578  -0.000017  -0.000000   0.000000
   66  C  2 XYZ  -0.000009  -0.000017  -0.212746   0.000000   0.000000
   67  C  3  S   -0.000002  -0.000001  -0.000000   0.000147   0.000033
   68  C  3  S   -0.000000  -0.000000  -0.000000   0.000033  -0.000003
   69  C  3  X   -0.000075  -0.000032  -0.000000   0.002245   0.001255
   70  C  3  Y   -0.000032  -0.000009  -0.000000   0.003001   0.001677
   71  C  3  Z    0.000000   0.000000   0.000102  -0.000000  -0.000000
   72  C  3  S   -0.002908  -0.001190  -0.000000   0.022458   0.024966
   73  C  3  X   -0.009887  -0.004445  -0.000001   0.040539   0.047987
   74  C  3  Y   -0.004445  -0.000849  -0.000000   0.054182   0.064137
   75  C  3  Z    0.000000   0.000000   0.004652  -0.000006  -0.000008
   76  C  3  S   -0.049272  -0.020171  -0.000001   0.063226   0.075748
   77  C  3  X   -0.107070  -0.056103  -0.000001   0.069754   0.085096
   78  C  3  Y   -0.056103   0.007007   0.000000   0.093228   0.113733
   79  C  3  Z   -0.000002  -0.000001   0.017684  -0.000011  -0.000014
   80  C  3  S   -0.052627  -0.021544  -0.000000   0.049753   0.059334
   81  C  3  X   -0.031604  -0.036833  -0.000000   0.031086   0.037293
   82  C  3  Y   -0.036833   0.043291   0.000000   0.041548   0.049843
   83  C  3  Z   -0.000001  -0.000001   0.003493  -0.000005  -0.000006
   84  C  3 XX   -0.008217  -0.003933  -0.000001   0.032831   0.038315
   85  C  3 YY   -0.002063  -0.000275  -0.000000   0.056371   0.067048
   86  C  3 ZZ   -0.001632  -0.000668   0.000000   0.002894   0.001774
   87  C  3 XY   -0.005934  -0.001427  -0.000000   0.069302   0.084591
   88  C  3 XZ    0.000000   0.000000   0.008042  -0.000008  -0.000010
   89  C  3 YZ    0.000000   0.000000   0.001934  -0.000011  -0.000014
   90  C  3 XXX  -0.005575  -0.002781  -0.000001   0.023048   0.025860
   91  C  3 YYY  -0.000855  -0.000082  -0.000000   0.049426   0.058186
   92  C  3 ZZZ  -0.000000  -0.000000   0.000810  -0.000001  -0.000001
   93  C  3 XXY  -0.004825  -0.001352  -0.000001   0.058263   0.070548
   94  C  3 XXZ   0.000000   0.000000   0.008358  -0.000007  -0.000008
   95  C  3 YYX  -0.002769  -0.000519  -0.000000   0.074746   0.092308
   96  C  3 YYZ   0.000000   0.000000   0.000898  -0.000012  -0.000015
   97  C  3 ZZX  -0.002382  -0.001045   0.000000   0.003973   0.002520
   98  C  3 ZZY  -0.001045  -0.000256   0.000000   0.005309   0.003368
   99  C  3 XYZ   0.000000   0.000000   0.003545  -0.000015  -0.000019
  100  H  4  S   -0.000404   0.000248   0.000001   0.011866   0.010745
  101  H  4  S   -0.023573   0.014429   0.000010   0.074371   0.089124
  102  H  4  S   -0.077297   0.047314   0.000004   0.079314   0.095289
  103  H  5  S   -0.000000  -0.000000  -0.000000   0.000002   0.000000
  104  H  5  S   -0.000113  -0.000028  -0.000000   0.002285   0.002332
  105  H  5  S   -0.013450  -0.003385  -0.000000   0.024308   0.028743
  106  H  6  S   -0.000008  -0.000008   0.000000   0.000002   0.000000
  107  H  6  S   -0.003434  -0.003583   0.000001   0.002512   0.002577
  108  H  6  S   -0.035928  -0.037485   0.000002   0.025110   0.029704
  109  H  7  S    0.055959   0.095295   0.000148   0.000001   0.000000
  110  H  7  S    0.140511   0.239282   0.000045   0.001638   0.001641
  111  H  7  S    0.075060   0.127822   0.000003   0.021688   0.025604
  112  O  8  S    0.002068  -0.003707   0.000022   0.000000  -0.000000
  113  O  8  S    0.001157  -0.002075   0.000024  -0.000000   0.000000
  114  O  8  X   -0.002766   0.013632  -0.000015  -0.000000   0.000000
  115  O  8  Y    0.013632  -0.019605   0.000057   0.000000  -0.000000
  116  O  8  Z   -0.000014   0.000025  -0.088623  -0.000000   0.000000
  117  O  8  S    0.060864  -0.109128   0.000064   0.000001   0.000000
  118  O  8  X   -0.003717   0.109079  -0.000004  -0.000004  -0.000000
  119  O  8  Y    0.109079  -0.138459   0.000081   0.000002   0.000000
[...]
  126  O  8  X    0.000126  -0.000000  -0.000000   0.000921   0.000000
  127  O  8  Y   -0.004755   0.000000   0.000000   0.000000   0.000199
  128  O  8  Z   -0.000000   0.000000  -0.000000   0.000000   0.000000
  129  O  8 XX    0.000073   0.000051   0.000084   0.000000   0.000000
  130  O  8 YY   -0.000137   0.000019   0.000047  -0.000000  -0.000000
  131  O  8 ZZ    0.000017   0.000060   0.000114  -0.000000   0.000000
  132  O  8 XY   -0.000000  -0.000000   0.000000  -0.000000   0.000000
  133  O  8 XZ    0.000000   0.000000   0.000000  -0.000000  -0.000000
  134  O  8 YZ   -0.000000  -0.000000  -0.000000  -0.000000  -0.000000
  135  O  8 XXX   0.000001  -0.000000  -0.000000   0.000533   0.000000
  136  O  8 YYY  -0.000002  -0.000000   0.000000  -0.000000   0.001481
  137  O  8 ZZZ  -0.000000   0.000000   0.000000   0.000000  -0.000000
  138  O  8 XXY  -0.000017  -0.000000   0.000000  -0.000000   0.000206
  139  O  8 XXZ   0.000000  -0.000000   0.000000  -0.000000   0.000000
  140  O  8 YYX  -0.000000  -0.000000  -0.000000   0.000837  -0.000000
  141  O  8 YYZ   0.000000  -0.000000   0.000000  -0.000000   0.000000
  142  O  8 ZZX   0.000001  -0.000000  -0.000000   0.000402   0.000000
  143  O  8 ZZY  -0.000009  -0.000000   0.000000   0.000000   0.000033
  144  O  8 XYZ  -0.000000   0.000000   0.000000   0.000000  -0.000000

                    116        117        118        119        120

  116  O  8  Z    0.106755
  117  O  8  S   -0.000000   0.671472
  118  O  8  X    0.000000   0.000000   0.351124
  119  O  8  Y    0.000000  -0.000000   0.000000   0.287320
  120  O  8  Z    0.098014  -0.000000   0.000000   0.000000   0.240268
  121  O  8  S   -0.000000   0.458312   0.000000  -0.000000  -0.000000
  122  O  8  X    0.000000   0.000000   0.195356   0.000000   0.000000
  123  O  8  Y    0.000000  -0.000000   0.000000   0.127800   0.000000
  124  O  8  Z    0.028951  -0.000000   0.000000   0.000000   0.137676
  125  O  8  S   -0.000000   0.000446   0.000000   0.000000  -0.000000
  126  O  8  X    0.000000   0.000000   0.005720  -0.000000   0.000000
  127  O  8  Y    0.000000  -0.000000  -0.000000   0.001299   0.000000
  128  O  8  Z    0.000752   0.000000   0.000000   0.000000   0.004654
  129  O  8 XX    0.000000  -0.002762  -0.000000   0.000000  -0.000000
  130  O  8 YY    0.000000  -0.002169   0.000000  -0.000000  -0.000000
  131  O  8 ZZ    0.000000  -0.004019   0.000000   0.000000   0.000000
  132  O  8 XY   -0.000000  -0.000000  -0.000000  -0.000000  -0.000000
  133  O  8 XZ    0.000000   0.000000   0.000000  -0.000000  -0.000000
  134  O  8 YZ   -0.000000   0.000000  -0.000000   0.000000  -0.000000
  135  O  8 XXX   0.000000   0.000000   0.001885  -0.000000  -0.000000
  136  O  8 YYY   0.000000   0.000000   0.000000   0.005023   0.000000
  137  O  8 ZZZ   0.000943  -0.000000   0.000000  -0.000000   0.003348
  138  O  8 XXY   0.000000   0.000000   0.000000   0.000678   0.000000
  139  O  8 XXZ   0.000147   0.000000   0.000000   0.000000   0.000521
  140  O  8 YYX  -0.000000  -0.000000   0.002869   0.000000   0.000000
  141  O  8 YYZ   0.000404  -0.000000   0.000000   0.000000   0.001432
  142  O  8 ZZX  -0.000000   0.000000   0.001421  -0.000000  -0.000000
  143  O  8 ZZY  -0.000000   0.000000  -0.000000   0.000125  -0.000000
  144  O  8 XYZ  -0.000000  -0.000000   0.000000   0.000000   0.000000

                    121        122        123        124        125

  121  O  8  S    0.618703
  122  O  8  X    0.000000   0.287441
  123  O  8  Y   -0.000000   0.000000   0.151655
  124  O  8  Z   -0.000000   0.000000  -0.000000   0.202396
  125  O  8  S    0.037182   0.000000  -0.000000  -0.000000   0.032749
  126  O  8  X   -0.000000   0.019354   0.000000   0.000000  -0.000000
  127  O  8  Y    0.000000   0.000000   0.005258   0.000000   0.000000
  128  O  8  Z   -0.000000   0.000000   0.000000   0.013031   0.000000
  129  O  8 XX   -0.001760   0.000000  -0.000000  -0.000000   0.000113
  130  O  8 YY   -0.006238  -0.000000   0.000000  -0.000000  -0.001664
  131  O  8 ZZ   -0.001018  -0.000000  -0.000000   0.000000   0.000896
  132  O  8 XY    0.000000   0.000000   0.000000   0.000000   0.000000
  133  O  8 XZ   -0.000000   0.000000   0.000000   0.000000   0.000000
  134  O  8 YZ   -0.000000  -0.000000   0.000000   0.000000  -0.000000
  135  O  8 XXX   0.000000   0.001209   0.000000   0.000000  -0.000000
  136  O  8 YYY  -0.000000   0.000000   0.002176  -0.000000   0.000000
  137  O  8 ZZZ  -0.000000   0.000000  -0.000000   0.002009  -0.000000
  138  O  8 XXY  -0.000000  -0.000000   0.000248   0.000000   0.000000
  139  O  8 XXZ  -0.000000  -0.000000  -0.000000   0.000308  -0.000000
  140  O  8 YYX   0.000000   0.001332  -0.000000   0.000000   0.000000
  141  O  8 YYZ  -0.000000  -0.000000   0.000000   0.000851  -0.000000
  142  O  8 ZZX   0.000000   0.000914   0.000000  -0.000000  -0.000000
  143  O  8 ZZY  -0.000000   0.000000   0.000152  -0.000000  -0.000000
  144  O  8 XYZ   0.000000  -0.000000  -0.000000  -0.000000   0.000000

                    126        127        128        129        130

  126  O  8  X    0.006598
  127  O  8  Y    0.000000   0.002589
  128  O  8  Z    0.000000   0.000000   0.002148
  129  O  8 XX   -0.000000   0.000000   0.000000   0.000415
  130  O  8 YY    0.000000   0.000000  -0.000000  -0.000143   0.001153
  131  O  8 ZZ   -0.000000  -0.000000   0.000000   0.000025  -0.000123
  132  O  8 XY    0.000000   0.000000   0.000000  -0.000000  -0.000000
  133  O  8 XZ   -0.000000   0.000000  -0.000000  -0.000000   0.000000
  134  O  8 YZ    0.000000  -0.000000  -0.000000  -0.000000   0.000000
  135  O  8 XXX   0.000034   0.000000   0.000000   0.000000  -0.000000
  136  O  8 YYY   0.000000  -0.000028  -0.000000   0.000000   0.000000
  137  O  8 ZZZ   0.000000   0.000000   0.000066  -0.000000  -0.000000
  138  O  8 XXY   0.000000  -0.000005   0.000000   0.000000  -0.000000
  139  O  8 XXZ  -0.000000  -0.000000   0.000008   0.000000  -0.000000
  140  O  8 YYX  -0.000019   0.000000   0.000000   0.000000   0.000000
  141  O  8 YYZ  -0.000000  -0.000000   0.000025  -0.000000   0.000000
  142  O  8 ZZX   0.000038   0.000000   0.000000   0.000000  -0.000000
  143  O  8 ZZY   0.000000   0.000014  -0.000000  -0.000000  -0.000000
  144  O  8 XYZ  -0.000000   0.000000  -0.000000   0.000000  -0.000000

                    131        132        133        134        135

  131  O  8 ZZ    0.000280
  132  O  8 XY    0.000000   0.001053
  133  O  8 XZ   -0.000000   0.000000   0.000263
  134  O  8 YZ    0.000000  -0.000000  -0.000000   0.000808
  135  O  8 XXX   0.000000  -0.000000  -0.000000   0.000000   0.000054
  136  O  8 YYY   0.000000   0.000000  -0.000000   0.000000   0.000000
  137  O  8 ZZZ   0.000000   0.000000   0.000000   0.000000   0.000000
  138  O  8 XXY  -0.000000   0.000000  -0.000000   0.000000  -0.000000
  139  O  8 XXZ  -0.000000  -0.000000   0.000000   0.000000  -0.000000
  140  O  8 YYX  -0.000000  -0.000000   0.000000  -0.000000  -0.000008
  141  O  8 YYZ   0.000000  -0.000000   0.000000  -0.000000   0.000000
  142  O  8 ZZX   0.000000   0.000000   0.000000  -0.000000   0.000014
  143  O  8 ZZY   0.000000  -0.000000   0.000000  -0.000000  -0.000000
  144  O  8 XYZ   0.000000   0.000000   0.000000   0.000000  -0.000000

                    136        137        138        139        140

  136  O  8 YYY   0.000172
  137  O  8 ZZZ  -0.000000   0.000059
  138  O  8 XXY   0.000007  -0.000000   0.000032
  139  O  8 XXZ   0.000000   0.000006   0.000000   0.000003
  140  O  8 YYX  -0.000000   0.000000  -0.000000  -0.000000   0.000164
  141  O  8 YYZ   0.000000   0.000015   0.000000   0.000003  -0.000000
  142  O  8 ZZX   0.000000  -0.000000  -0.000000  -0.000000  -0.000001
  143  O  8 ZZY   0.000002   0.000000  -0.000001  -0.000000   0.000000
  144  O  8 XYZ  -0.000000  -0.000000  -0.000000  -0.000000   0.000000

                    141        142        143        144

  141  O  8 YYZ   0.000021
  142  O  8 ZZX  -0.000000   0.000024
  143  O  8 ZZY  -0.000000   0.000000   0.000019
  144  O  8 XYZ  -0.000000  -0.000000   0.000000   0.000006

               ----- POPULATIONS IN EACH AO -----
                             MULLIKEN      LOWDIN
              1  C  1  S      1.10389     1.04739
              2  C  1  S      0.89009     0.90973
              3  C  1  X      0.22057     0.19586
              4  C  1  Y      0.22930     0.20398
              5  C  1  Z      0.11097     0.10003
              6  C  1  S      0.76971     0.39643
              7  C  1  X      0.52122     0.28072
              8  C  1  Y      0.51330     0.28953
              9  C  1  Z      0.30536     0.16263
             10  C  1  S      0.42070     0.19865
             11  C  1  X      0.13029     0.20200
             12  C  1  Y      0.15455     0.21054
             13  C  1  Z      0.22796     0.18477
             14  C  1  S      0.09191     0.05667
             15  C  1  X      0.06624     0.04702
             16  C  1  Y      0.01270     0.03465
             17  C  1  Z      0.00672     0.02972
             18  C  1 XX      0.05537     0.17597
             19  C  1 YY      0.08263     0.20906
             20  C  1 ZZ     -0.02248     0.09098
             21  C  1 XY      0.05294     0.07686
             22  C  1 XZ      0.01573     0.02057
             23  C  1 YZ      0.02350     0.02708
             24  C  1 XXX     0.01343     0.19090
             25  C  1 YYY     0.03546     0.21640
             26  C  1 ZZZ    -0.00495     0.08231
             27  C  1 XXY     0.00995     0.10341
             28  C  1 XXZ     0.00510     0.05365
             29  C  1 YYX     0.01505     0.11054
             30  C  1 YYZ     0.01713     0.07704
             31  C  1 ZZX    -0.00051     0.06460
             32  C  1 ZZY    -0.00273     0.06228
             33  C  1 XYZ     0.00273     0.00539
             34  C  2  S      1.10344     1.04668
             35  C  2  S      0.89012     0.91026
             36  C  2  X      0.21563     0.18611
             37  C  2  Y      0.22787     0.19465
             38  C  2  Z      0.16199     0.14502
             39  C  2  S      0.73133     0.37231
             40  C  2  X      0.49194     0.28058
             41  C  2  Y      0.50365     0.29979
             42  C  2  Z      0.41452     0.23071
             43  C  2  S      0.50142     0.21146
             44  C  2  X      0.16200     0.21080
             45  C  2  Y      0.32077     0.25177
             46  C  2  Z      0.45265     0.32213
             47  C  2  S     -0.34818     0.05664
             48  C  2  X      0.01263     0.05129
             49  C  2  Y      0.03236     0.04037
             50  C  2  Z      0.02036     0.05674
             51  C  2 XX      0.04084     0.15798
             52  C  2 YY      0.05911     0.17522
             53  C  2 ZZ     -0.01766     0.09801
             54  C  2 XY      0.01981     0.03203
             55  C  2 XZ      0.00472     0.00599
             56  C  2 YZ      0.00563     0.00534
             57  C  2 XXX     0.01695     0.19674
             58  C  2 YYY     0.03894     0.21505
             59  C  2 ZZZ     0.00207     0.12947
             60  C  2 XXY     0.01011     0.09908
             61  C  2 XXZ     0.00790     0.07248
             62  C  2 YYX     0.01432     0.09893
             63  C  2 YYZ     0.01125     0.07726
             64  C  2 ZZX    -0.00001     0.06535
             65  C  2 ZZY    -0.00122     0.06608
             66  C  2 XYZ     0.00026     0.00120
             67  C  3  S      1.10360     1.04730
             68  C  3  S      0.89011     0.91092
             69  C  3  X      0.22559     0.19767
             70  C  3  Y      0.23452     0.20219
             71  C  3  Z      0.12945     0.11576
             72  C  3  S      0.75292     0.38943
             73  C  3  X      0.51845     0.30626
             74  C  3  Y      0.52175     0.30888
             75  C  3  Z      0.33691     0.18815
             76  C  3  S      0.52258     0.23225
             77  C  3  X      0.30756     0.25804
             78  C  3  Y      0.27339     0.25678
             79  C  3  Z      0.34861     0.27481
             80  C  3  S      0.05705     0.05568
             81  C  3  X      0.04116     0.04756
             82  C  3  Y      0.04170     0.03653
             83  C  3  Z      0.01543     0.05229
             84  C  3 XX      0.06049     0.18492
             85  C  3 YY      0.05696     0.17690
             86  C  3 ZZ     -0.02130     0.09605
             87  C  3 XY      0.01404     0.02662
             88  C  3 XZ      0.00388     0.00423
             89  C  3 YZ      0.00706     0.00780
             90  C  3 XXX     0.03590     0.21648
             91  C  3 YYY     0.03192     0.21761
             92  C  3 ZZZ     0.00019     0.10423
             93  C  3 XXY     0.01244     0.10366
             94  C  3 XXZ     0.00794     0.05942
             95  C  3 YYX     0.01166     0.10341
             96  C  3 YYZ     0.00880     0.06556
             97  C  3 ZZX    -0.00194     0.06741
             98  C  3 ZZY    -0.00153     0.06791
             99  C  3 XYZ     0.00016     0.00133
            100  H  4  S      0.25982     0.23389
            101  H  4  S      0.41532     0.35950
            102  H  4  S      0.05363     0.13917
            103  H  5  S      0.25906     0.23748
            104  H  5  S      0.42075     0.35957
            105  H  5  S      0.05316     0.14206
            106  H  6  S      0.25696     0.22930
            107  H  6  S      0.40506     0.34673
            108  H  6  S      0.04969     0.13698
            109  H  7  S      0.26100     0.23937
            110  H  7  S      0.44667     0.37520
            111  H  7  S      0.06864     0.14269
            112  O  8  S      1.08369     1.03246
            113  O  8  S      0.91175     0.93127
            114  O  8  X      0.36163     0.34897
            115  O  8  Y      0.31537     0.29544
            116  O  8  Z      0.24761     0.23614
            117  O  8  S      0.99693     0.54019
            118  O  8  X      0.75957     0.42329
            119  O  8  Y      0.67463     0.37353
            120  O  8  Z      0.55359     0.30054
            121  O  8  S      0.90185     0.38744
            122  O  8  X      0.55519     0.40937
            123  O  8  Y      0.38880     0.35518
            124  O  8  Z      0.50950     0.36207
            125  O  8  S      0.00442     0.11332
            126  O  8  X      0.00389     0.09036
            127  O  8  Y     -0.01030     0.08743
            128  O  8  Z      0.02238     0.09443
            129  O  8 XX     -0.00419     0.18678
            130  O  8 YY      0.00233     0.17941
            131  O  8 ZZ     -0.00781     0.18639
            132  O  8 XY      0.00542     0.00793
            133  O  8 XZ      0.00119     0.00081
            134  O  8 YZ      0.00370     0.00244
            135  O  8 XXX     0.00373     0.24250
            136  O  8 YYY     0.01234     0.23167
            137  O  8 ZZZ     0.00728     0.17385
            138  O  8 XXY     0.00192     0.10571
            139  O  8 XXZ     0.00118     0.08003
            140  O  8 YYX     0.00746     0.12669
            141  O  8 YYZ     0.00342     0.08632
            142  O  8 ZZX     0.00276     0.10998
            143  O  8 ZZY     0.00005     0.09100
            144  O  8 XYZ     0.00015     0.00026

          ----- MULLIKEN ATOMIC OVERLAP POPULATIONS -----
          (OFF-DIAGONAL ELEMENTS NEED TO BE MULTIPLIED BY 2)

             1           2           3           4           5

    1    5.0833507
    2    0.1512007   5.3729462
    3    0.0151215   0.5403715   5.1621832
    4   -0.0161957   0.3497814   0.0102532   0.3798918
    5   -0.0003144  -0.0287384   0.3853816  -0.0024450   0.3924644
    6    0.0274027  -0.0343731   0.3689496   0.0019145  -0.0148385
    7    0.3881556  -0.1021647   0.0214210   0.0030726   0.0000322
    8    0.4250849  -0.1414925   0.0437789   0.0024971   0.0014360

             6           7           8

    6    0.3653724
    7    0.0000352   0.5031430
    8   -0.0027550  -0.0373804   8.0302636

          TOTAL MULLIKEN AND LOWDIN ATOMIC POPULATIONS
       ATOM         MULL.POP.                    LOW.POP.

          TOTAL MULLIKEN AND LOWDIN ATOMIC POPULATIONS
       ATOM         MULL.POP.    CHARGE          LOW.POP.     CHARGE
    1 C             6.073806                     6.117361
    1 C             6.073806   -0.073806         6.117361   -0.117361
    2 C             6.107531                     6.363496
    2 C             6.107531   -0.107531         6.363496   -0.363496
    3 C             6.547461                     6.384034
    3 C             6.547461   -0.547461         6.384034   -0.384034
    4 H             0.728770                     0.732557
    4 H             0.728770    0.271230         0.732557    0.267443
    5 H             0.732978                     0.739109
    5 H             0.732978    0.267022         0.739109    0.260891
    6 H             0.711708                     0.713005
    6 H             0.711708    0.288292         0.713005    0.286995
    7 H             0.776314                     0.757259
    7 H             0.776314    0.223686         0.757259    0.242741
    8 O             8.321433                     8.193178
    8 O             8.321433   -0.321433         8.193178   -0.193178

          -------------------------------
          BOND ORDER AND VALENCE ANALYSIS     BOND ORDER THRESHOLD=0.050
          -------------------------------

                   BOND                       BOND                       BOND
  ATOM PAIR DIST  ORDER      ATOM PAIR DIST  ORDER      ATOM PAIR DIST  ORDER
    1   2  1.485  0.914        1   3  2.463  0.222        1   7  1.112  0.881
    1   8  1.216  1.966        2   3  1.338  1.981        2   4  1.088  0.847
    2   8  2.393 -0.138        3   4  2.122  0.052        3   5  1.086  0.911
    3   6  1.087  0.883        3   8  2.875  0.077

                       TOTAL       BONDED        FREE
      ATOM            VALENCE     VALENCE     VALENCE
    1 C                 4.026       4.026      -0.000
    2 C                 3.566       3.566       0.000
    3 C                 4.144       4.144      -0.000
    4 H                 0.911       0.911      -0.000
    5 H                 0.906       0.906      -0.000
    6 H                 0.902       0.902       0.000
    7 H                 0.905       0.905      -0.000
    8 O                 1.927       1.927       0.000

          ---------------------
          ELECTROSTATIC MOMENTS
          ---------------------

 POINT   1           X           Y           Z (BOHR)    CHARGE
                 0.109700   -0.039675   -0.000012        0.00 (A.U.)
         DX          DY          DZ         /D/  (DEBYE)
    -2.537619    1.997106    0.000439    3.229232
 ...... END OF PROPERTY EVALUATION ......
 CPU     0: STEP CPU TIME=     0.03 TOTAL CPU TIME=          4.1 (      0.1 MIN)
 TOTAL WALL CLOCK TIME=          4.7 SECONDS, CPU UTILIZATION IS    87.12%
               580000  WORDS OF DYNAMIC MEMORY USED
 EXECUTION OF GAMESS TERMINATED NORMALLY Mon Jun 10 15:31:40 2019
 DDI: 263640 bytes (0.3 MB / 0 MWords) used by master data server.

 ----------------------------------------
 CPU timing information for all processes
 ========================================
 0: 4.30 + 0.44 = 4.74
 1: 3.883 + 0.43 = 3.927
 2: 3.887 + 0.32 = 3.919
 3: 3.951 + 0.19 = 3.971
 4: 3.883 + 0.23 = 3.907
 ----------------------------------------
 ddikick.x: exited gracefully.
----- accounting info -----
Files used on the master node multivac were:
-rw-r--r-- 1 igorchem igorchem     757 Jun 10 15:31 /home/igorchem/programs/src/acrolein_gam.F05
-rw-rw-r-- 1 igorchem igorchem 2944800 Jun 10 15:31 /home/igorchem/programs/src/acrolein_gam.F10
Mon Jun 10 15:31:43 -03 2019
0.0u 0.0s 0:07.81 1.2% 0+0k 0+16io 0pf+0w
