 *******************************************************************************
 ** Site#: 29116        For non-commercial use only    Version 19.024L 64BITS **
 *******************************************************************************
 ** Cite this program as: MOPAC2016, Version: 19.024L, James J. P. Stewart,   **
 ** Stewart Computational Chemistry, web: HTTP://OpenMOPAC.net. Days left: 228**
 *******************************************************************************
 **                                                                           **
 **                                MOPAC2016                                  **
 **                                                                           **
 *******************************************************************************

                              PM7 CALCULATION RESULTS

 *******************************************************************************
 *  CALCULATION DONE:                                Mon Jun 10 15:40:40 2019  *
 *  PM7        - The PM7 Hamiltonian to be used
 *  DOUBLET    - SPIN STATE DEFINED AS A DOUBLET
 *
 *
 *
 *                 CHARGE ON SYSTEM =    -1
 *
 *
 *
 *  1SCF       - DO 1 SCF AND THEN STOP 
 *  T=         - A TIME OF 172800.0 SECONDS REQUESTED
 *  DUMP=N     - RESTART FILE WRITTEN EVERY  7200.000 SECONDS
 *  AUX        - OUTPUT AUXILIARY INFORMATION
 *  BONDS      - FINAL BOND-ORDER MATRIX TO BE PRINTED
 *******************************************************************************
PM7 1SCF    CHARGE=-1 Doublet  BONDS AUX

 Mopac file generated by Gabedit
   ATOM   CHEMICAL          X               Y               Z
  NUMBER   SYMBOL      (ANGSTROMS)     (ANGSTROMS)     (ANGSTROMS)
 
     1       C          0.81127639  *   0.46470281  *   0.00008545  *
     2       C         -0.66697938  *   0.60265201  *  -0.00008310  *
     3       C         -1.46847835  *  -0.46857764  *   0.00004476  *
     4       H         -1.06752269  *   1.61472511  *  -0.00023403  *
     5       H         -2.55092217  *  -0.38156522  *  -0.00001742  *
     6       H         -1.04088787  *  -1.46775636  *   0.00024280  *
     7       H          1.37413283  *   1.42321831  *   0.00037206  *
     8       O          1.40378599  *  -0.59766061  *  -0.00008076  *
 


          CARTESIAN COORDINATES 

    NO.       ATOM           X           Y           Z

     1         C          0.8113      0.4647      0.0001
     2         C         -0.6670      0.6027     -0.0001
     3         C         -1.4685     -0.4686      0.0000
     4         H         -1.0675      1.6147     -0.0002
     5         H         -2.5509     -0.3816     -0.0000
     6         H         -1.0409     -1.4678      0.0002
     7         H          1.3741      1.4232      0.0004
     8         O          1.4038     -0.5977     -0.0001

 General Reference for PM7:
 "Optimization of Parameters for Semiempirical Methods VI: More Modifications to the 
 NDDO Approximations and Re-optimization of Parameters", J. J. P. Stewart, J. Mol. Mod., 1:32, 19 (2013)
 http://www.springerlink.com/openurl.asp?genre=article&id=doi:10.1007/s00894-012-1667-x

           Empirical Formula: C3 H4 O  =     8 atoms



      MOLECULAR POINT GROUP   :   Cs  


 DOUBLET STATE CALCULATION


          UHF CALCULATION, NO. OF ALPHA ELECTRONS =   12
                           NO. OF BETA  ELECTRONS =   11

 -------------------------------------------------------------------------------
 PM7 1SCF    CHARGE=-1 Doublet  BONDS AUX

 Mopac file generated by Gabedit


     1SCF WAS SPECIFIED, SO BFGS WAS NOT USED                 
     SCF FIELD WAS ACHIEVED                                   


                              PM7 CALCULATION
                                                       MOPAC2016 (Version: 19.024L)
                                                       Mon Jun 10 15:40:40 2019
                                                       No. of days remaining = 228




          FINAL HEAT OF FORMATION =        -30.39621 KCAL/MOL =    -127.17774 KJ/MOL


          TOTAL ENERGY            =       -717.44549 EV
          ELECTRONIC ENERGY       =      -2024.82708 EV  POINT GROUP:     Cs  
          CORE-CORE REPULSION     =       1307.38159 EV
          COSMO AREA              =         96.32 SQUARE ANGSTROMS
          COSMO VOLUME            =         79.55 CUBIC ANGSTROMS

          IONIZATION POTENTIAL    =          1.007997 EV
          ALPHA SOMO LUMO (EV)    =         -1.008  7.077
          BETA  SOMO LUMO (EV)    =         -3.715  6.768
          NO. OF ALPHA ELECTRONS  =         12
          NO. OF BETA  ELECTRONS  =         11
          MOLECULAR WEIGHT        =         56.0640

          MOLECULAR DIMENSIONS (Angstroms)

            Atom       Atom       Distance
            H     7    H     5     4.32010
            O     8    H     4     3.04250
            H     6    H     4     0.00056


          SCF CALCULATIONS        =          1
 
          WALL-CLOCK TIME         =          0.070 SECONDS
          COMPUTATION TIME        =          0.081 SECONDS




   ATOM   CHEMICAL          X               Y               Z
  NUMBER   SYMBOL      (ANGSTROMS)     (ANGSTROMS)     (ANGSTROMS)
 
     1       C          0.81127639  *   0.46470281  *   0.00008545  *
     2       C         -0.66697938  *   0.60265201  *  -0.00008310  *
     3       C         -1.46847835  *  -0.46857764  *   0.00004476  *
     4       H         -1.06752269  *   1.61472511  *  -0.00023403  *
     5       H         -2.55092217  *  -0.38156522  *  -0.00001742  *
     6       H         -1.04088787  *  -1.46775636  *   0.00024280  *
     7       H          1.37413283  *   1.42321831  *   0.00037206  *
     8       O          1.40378599  *  -0.59766061  *  -0.00008076  *

                             CARTESIAN COORDINATES

   1    C        0.811276387     0.464702809     0.000085450
   2    C       -0.666979379     0.602652009    -0.000083095
   3    C       -1.468478353    -0.468577641     0.000044755
   4    H       -1.067522685     1.614725109    -0.000234025
   5    H       -2.550922170    -0.381565219    -0.000017422
   6    H       -1.040887871    -1.467756360     0.000242800
   7    H        1.374132826     1.423218314     0.000372057
   8    O        1.403785994    -0.597660613    -0.000080759


           Empirical Formula: C3 H4 O  =     8 atoms



      MOLECULAR POINT GROUP   :   Cs  


          ALPHA EIGENVALUES  
 -23.81742 -20.47179 -16.57164 -12.48191 -11.03003  -8.55234  -8.06126  -7.93188
  -6.55089  -5.06230  -3.90342  -1.00800   7.07685  10.48816  10.97376  11.19575
  11.88726  11.93795  12.32810  12.90140


           BETA EIGENVALUES 
 -23.23032 -20.26860 -16.30474 -12.30626 -10.91792  -8.32933  -7.79996  -7.28338
  -6.43107  -4.03189  -3.71512   6.76759   8.41382  10.49081  11.04643  11.30408
  12.04701  12.12670  12.45830  13.17910


              NET ATOMIC CHARGES AND DIPOLE CONTRIBUTIONS

  ATOM NO.   TYPE          CHARGE      No. of ELECS.   s-Pop       p-Pop       
    1          C           0.222101        3.7779     1.09584     2.68206
    2          C          -0.372293        4.3723     1.06909     3.30320
    3          C          -0.502219        4.5022     1.06369     3.43853
    4          H           0.090063        0.9099     0.90994
    5          H           0.087434        0.9126     0.91257
    6          H           0.131989        0.8680     0.86801
    7          H           0.027359        0.9726     0.97264
    8          O          -0.684435        6.6844     1.86994     4.81449
 DIPOLE           X         Y         Z       TOTAL
 POINT-CHG.    -0.749     2.208     0.000     2.331
 HYBRID         0.003    -0.129    -0.000     0.129
 SUM           -0.746     2.078     0.000     2.208


          ATOMIC ORBITAL ELECTRON POPULATIONS

     Atom    s        px        py        pz   
    1  C   1.09584   0.91888   0.87553   0.88766
    2  C   1.06909   1.02587   1.04299   1.23434
    3  C   1.06369   1.05802   1.08954   1.29097
    4  H   0.90994
    5  H   0.91257
    6  H   0.86801
    7  H   0.97264
    8  O   1.86994   1.76798   1.45949   1.58703


                    (SZ)    =    0.500000
                    (S**2)  =    0.790209


          ATOMIC ORBITAL SPIN POPULATIONS

    Atom   Total    s     px     py     pz   
         Atomic
    1  C  0.2190  0.004  0.006  0.000  0.209
    2  C -0.0025 -0.005 -0.011 -0.007  0.020
    3  C  0.6123  0.014  0.018  0.017  0.562
    4  H -0.0001 -0.000
    5  H -0.0186 -0.019
    6  H -0.0182 -0.018
    7  H -0.0087 -0.009
    8  O  0.2168  0.007  0.002 -0.001  0.209

          BONDING CONTRIBUTION OF EACH ALPHA M.O.

  0.6602  0.9026  0.8457  0.8464  0.8923  0.7125  0.4678  0.8381  0.9067  0.3387
  0.3780  0.4757 -1.2822 -1.0394 -1.0068 -0.9936 -0.9618 -0.9964 -1.0006 -0.9839

          BONDING CONTRIBUTION OF EACH BETA  M.O.

  0.7169  0.8988  0.8437  0.8495  0.8997  0.7083  0.8231  0.8894  0.8985  0.9274
  0.3699 -0.8864 -0.9304 -1.0450 -1.0106 -0.9994 -1.0002 -0.9652 -0.9987 -0.9893





            (VALENCIES)   BOND ORDERS

     1  C     (3.928)     8  O 1.480     2  C 1.243     7  H 0.945     3  C 0.016
 
     2  C     (3.933)     3  C 1.413     1  C 1.243     4  H 0.978     8  O 0.099     7  H 0.012
 
     3  C     (3.890)     2  C 1.413     5  H 0.983     6  H 0.972     1  C 0.016
 
     4  H     (0.992)     2  C 0.978
 
     5  H     (0.992)     3  C 0.983
 
     6  H     (0.983)     3  C 0.972
 
     7  H     (0.999)     1  C 0.945     8  O 0.038     2  C 0.012
 
     8  O     (1.779)     1  C 1.480     2  C 0.099     7  H 0.038
 

 **********************
 *                    *
 * JOB ENDED NORMALLY *
 *                    *
 **********************



 TOTAL JOB TIME:             0.13 SECONDS

 == MOPAC DONE ==
