
                                 *****************
                                 * O   R   C   A *
                                 *****************

           --- An Ab Initio, DFT and Semiempirical electronic structure package ---

                  #######################################################
                  #                        -***-                        #
                  #  Department of molecular theory and spectroscopy    #
                  #              Directorship: Frank Neese              #
                  # Max Planck Institute for Chemical Energy Conversion #
                  #                  D-45470 Muelheim/Ruhr              #
                  #                       Germany                       #
                  #                                                     #
                  #                  All rights reserved                #
                  #                        -***-                        #
                  #######################################################


                         Program Version 3.0.3 - RELEASE   -


 With contributions from (in alphabetic order):
   Ute Becker             : Parallelization
   Dmytro Bykov           : SCF Hessian
   Dmitry Ganyushin       : Spin-Orbit,Spin-Spin,Magnetic field MRCI
   Andreas Hansen         : Spin unrestricted coupled pair/coupled cluster methods
   Dimitrios Liakos       : Extrapolation schemes; parallel MDCI
   Robert Izsak           : Overlap fitted RIJCOSX, COSX-SCS-MP3
   Christian Kollmar      : KDIIS, OOCD, Brueckner-CCSD(T), CCSD density
   Simone Kossmann        : Meta GGA functionals, TD-DFT gradient, OOMP2, MP2 Hessian
   Taras Petrenko         : DFT Hessian,TD-DFT gradient, ASA and ECA modules, normal mode analysis, Resonance Raman, ABS, FL, XAS/XES, NRVS
   Christoph Reimann      : Effective Core Potentials
   Michael Roemelt        : Restricted open shell CIS
   Christoph Riplinger    : Improved optimizer, TS searches, QM/MM, DLPNO-CCSD
   Barbara Sandhoefer     : DKH picture change effects
   Igor Schapiro          : Molecular dynamics
   Kantharuban Sivalingam : CASSCF convergence, NEVPT2
   Boris Wezisla          : Elementary symmetry handling
   Frank Wennmohs         : Technical directorship


 We gratefully acknowledge several colleagues who have allowed us to
 interface, adapt or use parts of their codes:
   Stefan Grimme, W. Hujo, H. Kruse, T. Risthaus : VdW corrections, initial TS optimization,
                                                   DFT functionals, gCP
   Ed Valeev                                     : LibInt (2-el integral package), F12 methods
   Garnet Chan, S. Sharma, R. Olivares           : DMRG
   Ulf Ekstrom                                   : XCFun DFT Library
   Mihaly Kallay                                 : mrcc  (arbitrary order and MRCC methods)
   Andreas Klamt, Michael Diedenhofen            : otool_cosmo (COSMO solvation model)
   Frank Weinhold                                : gennbo (NPA and NBO analysis)
   Christopher J. Cramer and Donald G. Truhlar   : smd solvation model


 Your calculation uses the libint2 library for the computation of 2-el integrals
 For citations please refer to: http://libint.valeyev.net

 This ORCA versions uses:
   CBLAS   interface :  Fast vector & matrix operations
   LAPACKE interface :  Fast linear algebra routines
   SCALAPACK package :  Parallel linear algebra routines


Your calculation utilizes the basis: 6-311G
Cite in your paper:
H, Li - Ne: R. Krishnan, J.S. Binkley, R. Seeger and J.A. Pople,
            J. Chem. Phys. 72, 650 (1980)
Na - Ar:    A.D. McLean and G.S. Chandler J. Chem. Phys. 72, 5639, (1980).
K  - Ca:    J-P. Blaudeau, M. P. McGrath, L.A. Curtiss and L. Radom,
            J. Chem. Phys. 107, 5016 (1997).
Ga - Kr:    L. A. Curtiss, M. P. McGrath, J-P. Blandeau, N. E. Davis,
            R. C. Binning, Jr. L. Radom, J. Chem. Phys. 103, 6104 (1995).

Your calculation utilizes diff. fcns from basis: 6-311++G(2d,2p)
Cite in your paper:
H, Li - Ne: R. Krishnan, J.S. Binkley, R. Seeger and J.A. Pople,
            J. Chem. Phys. 72, 650 (1980)
Na - Ar:    A.D. McLean and G.S. Chandler J. Chem. Phys. 72, 5639, (1980).
K  - Ca:    J-P. Blaudeau, M. P. McGrath, L.A. Curtiss and L. Radom,
            J. Chem. Phys. 107, 5016 (1997).
Ga - Kr:    L. A. Curtiss, M. P. McGrath, J-P. Blandeau, N. E. Davis,
            R. C. Binning, Jr. L. Radom, J. Chem. Phys. 103, 6104 (1995).
H - Ar:  R. Krishnan, J.S. Binkley, R. Seeger, J.A. Pople, J. Chem. Phys. 72,650 (1980)
H, Li-Cl: T. Clark, J. Chandrasekhar, P.V.R. Schleyer, J. Comp. Chem. 4, 294 (1983)

Your calculation utilizes pol. fcns from basis: 6-311++G(d,p)
Cite in your paper:
H, Li - Ne: R. Krishnan, J.S. Binkley, R. Seeger and J.A. Pople,
            J. Chem. Phys. 72, 650 (1980)
Na - Ar:    A.D. McLean and G.S. Chandler J. Chem. Phys. 72, 5639, (1980).
K  - Ca:    J-P. Blaudeau, M. P. McGrath, L.A. Curtiss and L. Radom,
            J. Chem. Phys. 107, 5016 (1997).
Ga - Kr:    L. A. Curtiss, M. P. McGrath, J-P. Blandeau, N. E. Davis,
            R. C. Binning, Jr. L. Radom, J. Chem. Phys. 103, 6104 (1995).
H - Ar:  R. Krishnan, J.S. Binkley, R. Seeger, J.A. Pople, J. Chem. Phys. 72,650 (1980)
H, Li-Cl: T. Clark, J. Chandrasekhar, P.V.R. Schleyer, J. Comp. Chem. 4, 294 (1983)

================================================================================
                                        WARNINGS
                       Please study these warnings very carefully!
================================================================================
Now building the actual basis set

WARNING: your system is open-shell and RHF/RKS was chosen
  ===> : WILL SWITCH to UHF/UKS



INFO   : the flag for use of LIBINT has been found!

================================================================================
                                       INPUT FILE
================================================================================
NAME = acrolein_orca_cat.inp
|  1> # ================================================================
|  2> # Orca input file made in Gabedit
|  3> # ================================================================
|  4> !  HF
|  5> ! PrintBasis 6-311+G*
|  6> %output
|  7>      print[p_mos] 1
|  8>      print[p_overlap] 5 
|  9>  end #output
| 10> * xyz 1   2
| 11>  C  0.811276 0.464703 0.000085
| 12>  C  -0.666979 0.602652 -0.000083
| 13>  C  -1.468478 -0.468578 0.000045
| 14>  H  -1.067523 1.614725 -0.000234
| 15>  H  -2.550922 -0.381565 -0.000017
| 16>  H  -1.040888 -1.467756 0.000243
| 17>  H  1.374133 1.423218 0.000372
| 18>  O  1.403786 -0.597661 -0.000081
| 19> *
| 20> 
| 21>                          ****END OF INPUT****
================================================================================

                       ****************************
                       * Single Point Calculation *
                       ****************************

---------------------------------
CARTESIAN COORDINATES (ANGSTROEM)
---------------------------------
  C      0.811276    0.464703    0.000085
  C     -0.666979    0.602652   -0.000083
  C     -1.468478   -0.468578    0.000045
  H     -1.067523    1.614725   -0.000234
  H     -2.550922   -0.381565   -0.000017
  H     -1.040888   -1.467756    0.000243
  H      1.374133    1.423218    0.000372
  O      1.403786   -0.597661   -0.000081

----------------------------
CARTESIAN COORDINATES (A.U.)
----------------------------
  NO LB      ZA    FRAG    MASS        X           Y           Z
   0 C     6.0000    0    12.011          1.533089459023097          0.878161403611607          0.000160626721383
   1 C     6.0000    0    12.011         -1.260407647076663          1.138847234059910         -0.000156847269115
   2 C     6.0000    0    12.011         -2.775021253688412         -0.885484092380552          0.000085037676026
   3 H     1.0000    0     1.008         -2.017326111662016          3.051388031595993         -0.000442195915338
   4 H     1.0000    0     1.008         -4.820543968994667         -0.721053352289662         -0.000032125344277
   5 H     1.0000    0     1.008         -1.966993256085024         -2.773656871419721          0.000459203450543
   6 H     1.0000    0     1.008          2.596735041583611          2.689492248867136          0.000702978121819
   7 O     8.0000    0    15.999          2.652771090632778         -1.129415610925509         -0.000153067816848

--------------------------------
INTERNAL COORDINATES (ANGSTROEM)
--------------------------------
 C      0   0   0   0.000000     0.000     0.000
 C      1   0   0   1.484678     0.000     0.000
 C      2   1   0   1.337884   121.473     0.000
 H      2   1   3   1.088452   116.923   179.995
 H      3   2   1   1.085936   122.208   179.996
 H      3   2   1   1.086826   120.028     0.000
 H      1   2   3   1.111557   115.091   180.024
 O      1   2   3   1.216423   124.481     0.024

---------------------------
INTERNAL COORDINATES (A.U.)
---------------------------
 C      0   0   0   0.000000     0.000     0.000
 C      1   0   0   2.805634     0.000     0.000
 C      2   1   0   2.528235   121.473     0.000
 H      2   1   3   2.056876   116.923   179.995
 H      3   2   1   2.052121   122.208   179.996
 H      3   2   1   2.053803   120.028     0.000
 H      1   2   3   2.100538   115.091   180.024
 O      1   2   3   2.298707   124.481     0.024

---------------------
BASIS SET INFORMATION
---------------------
There are 3 groups of distinct atoms

 Group   1 Type C   : 12s6p1d contracted to 5s4p1d pattern {63111/3111/1}
 Group   2 Type H   : 5s contracted to 3s pattern {311}
 Group   3 Type O   : 12s6p1d contracted to 5s4p1d pattern {63111/3111/1}

Atom   0C    basis set group =>   1
Atom   1C    basis set group =>   1
Atom   2C    basis set group =>   1
Atom   3H    basis set group =>   2
Atom   4H    basis set group =>   2
Atom   5H    basis set group =>   2
Atom   6H    basis set group =>   2
Atom   7O    basis set group =>   3

-------------------------
BASIS SET IN INPUT FORMAT
-------------------------

 # Basis set for element : H 
 NewGTO H 
 S 3 
   1      33.8650000000      0.0254938145
   2       5.0947900000      0.1903731086
   3       1.1587900000      0.8521614860
 S 1 
   1       0.3258400000      1.0000000000
 S 1 
   1       0.1027410000      1.0000000000
  end;

 # Basis set for element : C 
 NewGTO C 
 S 6 
   1    4563.2400000000      0.0019666502
   2     682.0240000000      0.0152306019
   3     154.9730000000      0.0761269097
   4      44.4553000000      0.2608010331
   5      13.0290000000      0.6164620782
   6       1.8277300000      0.2210060280
 S 3 
   1      20.9642000000      0.1146600807
   2       4.8033100000      0.9199996477
   3       1.4593300000     -0.0030306821
 P 3 
   1      20.9642000000      0.0402486927
   2       4.8033100000      0.2375939567
   3       1.4593300000      0.8158538515
 S 1 
   1       0.4834560000      1.0000000000
 P 1 
   1       0.4834560000      1.0000000000
 S 1 
   1       0.1455850000      1.0000000000
 P 1 
   1       0.1455850000      1.0000000000
 S 1 
   1       0.0438000000      1.0000000000
 P 1 
   1       0.0438000000      1.0000000000
 D 1 
   1       0.6260000000      1.0000000000
  end;

 # Basis set for element : O 
 NewGTO O 
 S 6 
   1    8588.5000000000      0.0018951501
   2    1297.2300000000      0.0143859006
   3     299.2960000000      0.0707320031
   4      87.3771000000      0.2400010105
   5      25.6789000000      0.5947970261
   6       3.7400400000      0.2808020123
 S 3 
   1      42.1175000000      0.1138890124
   2       9.6283700000      0.9208111006
   3       2.8533200000     -0.0032744704
 P 3 
   1      42.1175000000      0.0365113974
   2       9.6283700000      0.2371529830
   3       2.8533200000      0.8197019412
 S 1 
   1       0.9056610000      1.0000000000
 P 1 
   1       0.9056610000      1.0000000000
 S 1 
   1       0.2556110000      1.0000000000
 P 1 
   1       0.2556110000      1.0000000000
 S 1 
   1       0.0845000000      1.0000000000
 P 1 
   1       0.0845000000      1.0000000000
 D 1 
   1       1.2920000000      1.0000000000
  end;

------------------------------------------------------------------------------
                           ORCA GTO INTEGRAL CALCULATION
------------------------------------------------------------------------------

                         BASIS SET STATISTICS AND STARTUP INFO

 # of primitive gaussian shells          ...   96
 # of primitive gaussian functions       ...  160
 # of contracted shell                   ...   52
 # of contracted basis functions         ...  100
 Highest angular momentum                ...    2
 Maximum contraction depth               ...    6
 Integral package used                   ... LIBINT
 Integral threshhold            Thresh   ...  1.000e-10
 Primitive cut-off              TCut     ...  1.000e-11


                              INTEGRAL EVALUATION

 One electron integrals                  ... done
 Pre-screening matrix                    ... done
 Shell pair data                         ... done (   0.001 sec)

-------------------------------------------------------------------------------
                                 ORCA SCF
-------------------------------------------------------------------------------

------------
SCF SETTINGS
------------
Hamiltonian:
 Ab initio Hamiltonian  Method          .... Hartree-Fock(GTOs)


General Settings:
 Integral files         IntName         .... acrolein_orca_cat
 Hartree-Fock type      HFTyp           .... UHF
 Total Charge           Charge          ....    1
 Multiplicity           Mult            ....    2
 Number of Electrons    NEL             ....   29
 Basis Dimension        Dim             ....  100
 Nuclear Repulsion      ENuc            ....    104.3857846241 Eh

Convergence Acceleration:
 DIIS                   CNVDIIS         .... on
   Start iteration      DIISMaxIt       ....    12
   Startup error        DIISStart       ....  0.200000
   # of expansion vecs  DIISMaxEq       ....     5
   Bias factor          DIISBfac        ....   1.050
   Max. coefficient     DIISMaxC        ....  10.000
 Newton-Raphson         CNVNR           .... off
 SOSCF                  CNVSOSCF        .... off
 Level Shifting         CNVShift        .... on
   Level shift para.    LevelShift      ....    0.2500
   Turn off err/grad.   ShiftErr        ....    0.0010
 Zerner damping         CNVZerner       .... off
 Static damping         CNVDamp         .... on
   Fraction old density DampFac         ....    0.7000
   Max. Damping (<1)    DampMax         ....    0.9800
   Min. Damping (>=0)   DampMin         ....    0.0000
   Turn off err/grad.   DampErr         ....    0.1000
 Fernandez-Rico         CNVRico         .... off

SCF Procedure:
 Maximum # iterations   MaxIter         ....   125
 SCF integral mode      SCFMode         .... Direct
   Integral package                     .... LIBINT
 Reset frequeny         DirectResetFreq ....    20
 Integral Threshold     Thresh          ....  1.000e-10 Eh
 Primitive CutOff       TCut            ....  1.000e-11 Eh

Convergence Tolerance:
 Convergence Check Mode ConvCheckMode   .... Total+1el-Energy
 Energy Change          TolE            ....  1.000e-06 Eh
 1-El. energy change                    ....  1.000e-03 Eh
 DIIS Error             TolErr          ....  1.000e-06


Diagonalization of the overlap matrix:
Smallest eigenvalue                        ... 9.535e-05
Time for diagonalization                   ...    0.001 sec
Threshold for overlap eigenvalues          ... 1.000e-08
Number of eigenvalues below threshold      ... 0
Time for construction of square roots      ...    0.000 sec
Total time needed                          ...    0.002 sec

--------------
OVERLAP MATRIX
--------------
                  0          1          2          3          4          5    
      0       1.000000   0.878444  -0.000000   0.000000   0.000000   0.329179
      1       0.878444   1.000000   0.000000   0.000000   0.000000   0.418800
      2      -0.000000   0.000000   1.000000   0.000000   0.000000   0.000000
      3       0.000000   0.000000   0.000000   1.000000   0.000000   0.000000
      4       0.000000   0.000000   0.000000   0.000000   1.000000  -0.000000
      5       0.329179   0.418800   0.000000   0.000000  -0.000000   1.000000
      6       0.000000  -0.000000   0.629120   0.000000   0.000000   0.000000
      7       0.000000  -0.000000   0.000000   0.629120   0.000000   0.000000
      8       0.000000  -0.000000   0.000000   0.000000   0.629120   0.000000
      9       0.153761   0.187145  -0.000000   0.000000  -0.000000   0.774697
     10      -0.000000   0.000000   0.220230   0.000000   0.000000  -0.000000
     11      -0.000000   0.000000   0.000000   0.220230   0.000000  -0.000000
     12      -0.000000   0.000000   0.000000   0.000000   0.220230  -0.000000
     13       0.065562   0.078316  -0.000000   0.000000  -0.000000   0.410096
     14       0.000000  -0.000000   0.057350   0.000000   0.000000   0.000000
     15       0.000000   0.000000   0.000000   0.057350   0.000000   0.000000
     16       0.000000  -0.000000   0.000000   0.000000   0.057350   0.000000
     17       0.000000   0.000000   0.000000  -0.000000   0.000000   0.000000
     18       0.000000  -0.000000   0.000000   0.000000   0.000000   0.000000
     19       0.000000   0.000000  -0.000000   0.000000   0.000000   0.000000
     20       0.000000   0.000000   0.000000   0.000000   0.000000   0.000000
     21       0.000000   0.000000   0.000000  -0.000000   0.000000   0.000000
     22       0.000037   0.000004  -0.000000  -0.001184   0.000110   0.012189
     23       0.000004  -0.000001  -0.000000  -0.000428   0.000040   0.012997
     24       0.000000   0.000000   0.002170  -0.000003   0.000000   0.000008
     25       0.001184   0.000428  -0.000003  -0.022779   0.002328   0.066948
     26      -0.000110  -0.000040   0.000000   0.002328   0.001953  -0.006247
     27       0.012189   0.012997  -0.000008  -0.066948   0.006247   0.149153
     28       0.000005   0.000005   0.034467  -0.000022   0.000002   0.000033
     29       0.040332   0.046079  -0.000022  -0.163209   0.018447   0.289707
     30      -0.003764  -0.004300   0.000002   0.018447   0.032746  -0.027035
     31       0.051477   0.061439  -0.000009  -0.082383   0.007688   0.321087
     32       0.000012   0.000014   0.077292  -0.000018   0.000002   0.000060
     33       0.104720   0.127300  -0.000018  -0.083148   0.014972   0.526063
     34      -0.009772  -0.011879   0.000002   0.014972   0.075894  -0.049092
     35       0.046675   0.055642  -0.000003  -0.023980   0.002238   0.298945
     36       0.000006   0.000007   0.041017  -0.000003   0.000000   0.000036
     37       0.053787   0.064501  -0.000003   0.013757   0.002544   0.320510
     38      -0.005019  -0.006019   0.000000   0.002544   0.040779  -0.029910
     39      -0.023728  -0.027507   0.000025   0.098986  -0.009237  -0.124634
     40       0.000009   0.000011   0.068532  -0.000046   0.000005   0.000049
     41      -0.000001  -0.000001  -0.006395   0.000005   0.000007  -0.000005
     42       0.040388   0.046820  -0.000027  -0.167305   0.028403   0.212146
     43      -0.007604  -0.008815   0.000005   0.038007   0.064389  -0.039942
     44       0.000000  -0.000000  -0.000000  -0.000000  -0.000000   0.000047
     45      -0.000000   0.000000   0.000000   0.000000   0.000000   0.000029
     46       0.000000  -0.000000   0.000000  -0.000000  -0.000000   0.000000
     47       0.000000  -0.000000  -0.000000  -0.000002  -0.000001   0.000663
     48       0.000000  -0.000000  -0.000000  -0.000001  -0.000000   0.000271
     49       0.000047   0.000029  -0.000000  -0.000663  -0.000271   0.005309
     50       0.000000   0.000000   0.000221  -0.000000  -0.000000   0.000000
     51       0.000232   0.000161  -0.000000  -0.002774  -0.001226   0.015904
     52       0.000095   0.000066  -0.000000  -0.001226  -0.000281   0.006511
     53       0.007584   0.008719  -0.000000  -0.020284  -0.008304   0.068564
     54       0.000000   0.000000   0.012340  -0.000001  -0.000000   0.000003
     55       0.023745   0.027861  -0.000001  -0.048550  -0.024927   0.173240
     56       0.009720   0.011406  -0.000000  -0.024927   0.002135   0.070921
     57       0.025728   0.030562  -0.000000  -0.020550  -0.008413   0.171757
     58       0.000001   0.000001   0.022792  -0.000001  -0.000000   0.000005
     59       0.045720   0.054637  -0.000001  -0.013233  -0.014748   0.283991
     60       0.018717   0.022367  -0.000000  -0.014748   0.016754   0.116260
     61      -0.000070  -0.000034   0.000000   0.001176   0.000481  -0.007956
     62       0.000000   0.000000   0.000239  -0.000000  -0.000000   0.000000
     63       0.000000   0.000000   0.000098  -0.000000  -0.000000   0.000000
     64       0.000087   0.000042  -0.000000  -0.001383  -0.000762   0.009825
     65       0.000086   0.000042  -0.000000  -0.001498  -0.000414   0.009664
     66       0.000001   0.000000  -0.000000  -0.000036   0.000022   0.002048
     67       0.001616   0.001618  -0.000002  -0.008997   0.005507   0.033308
     68       0.021588   0.025485  -0.000006  -0.032586   0.019946   0.152715
     69       0.000000   0.000000   0.000000   0.000000   0.000000   0.000000
     70       0.000001   0.000001  -0.000000  -0.000017  -0.000004   0.000228
     71       0.001702   0.001936  -0.000000  -0.004960  -0.001249   0.017454
     72       0.000000  -0.000000   0.000000  -0.000000  -0.000000   0.000121
     73       0.000150   0.000129   0.000000  -0.000971  -0.001013   0.006675
     74       0.009509   0.011096   0.000001  -0.014505  -0.015134   0.075856
     75       0.010268   0.009055   0.000025   0.049042   0.083515   0.176433
     76       0.070492   0.084307   0.000044   0.086642   0.147547   0.411541
     77       0.077896   0.093563   0.000017   0.033862   0.057664   0.456233
     78       0.000092   0.000001  -0.000000   0.001776  -0.003185   0.022842
     79       0.000037  -0.000002  -0.000000   0.001216  -0.002180   0.023213
     80       0.000000   0.000000   0.003651   0.000003  -0.000004   0.000009
     81      -0.000731  -0.000115   0.000003  -0.005286   0.016022  -0.031837
     82       0.001311   0.000206  -0.000004   0.016022  -0.025078   0.057084
     83       0.011057   0.010392  -0.000012   0.044385  -0.079582   0.175833
     84       0.000005   0.000005   0.041654   0.000017  -0.000030   0.000037
     85      -0.017400  -0.018780   0.000017  -0.017730   0.106475  -0.130415
     86       0.031198   0.033672  -0.000030   0.106475  -0.149255   0.233832
     87       0.063997   0.076484  -0.000019   0.067527  -0.121075   0.383496
     88       0.000019   0.000023   0.119287   0.000018  -0.000033   0.000080
     89      -0.066926  -0.082417   0.000018   0.053681   0.117632  -0.284020
     90       0.119997   0.147772  -0.000033   0.117632  -0.091626   0.509244
     91       0.068145   0.081654  -0.000007   0.026082  -0.046764   0.410601
     92       0.000012   0.000015   0.080133   0.000005  -0.000008   0.000064
     93      -0.043154  -0.052278   0.000005   0.064041   0.028854  -0.227518
     94       0.077375   0.093734  -0.000008   0.028854   0.028399   0.407937
     95      -0.014757  -0.015572   0.000028  -0.047816   0.085733  -0.076514
     96      -0.000003  -0.000004  -0.030682  -0.000006   0.000027  -0.000018
     97       0.000006   0.000006   0.055013   0.000027  -0.000040   0.000032
     98      -0.013431  -0.014173   0.000017  -0.090325   0.051927  -0.069640
     99      -0.021746  -0.022947   0.000027  -0.041555   0.142463  -0.112753
                  6          7          8          9         10         11    
      0       0.000000   0.000000   0.000000   0.153761  -0.000000  -0.000000
      1      -0.000000  -0.000000  -0.000000   0.187145   0.000000   0.000000
      2       0.629120   0.000000   0.000000  -0.000000   0.220230   0.000000
      3       0.000000   0.629120   0.000000   0.000000   0.000000   0.220230
      4       0.000000   0.000000   0.629120  -0.000000   0.000000   0.000000
      5       0.000000   0.000000   0.000000   0.774697  -0.000000  -0.000000
      6       1.000000   0.000000   0.000000  -0.000000   0.653461   0.000000
      7       0.000000   1.000000   0.000000  -0.000000   0.000000   0.653461
      8       0.000000   0.000000   1.000000  -0.000000   0.000000   0.000000
      9      -0.000000  -0.000000  -0.000000   1.000000   0.000000   0.000000
     10       0.653461   0.000000   0.000000   0.000000   1.000000   0.000000
     11       0.000000   0.653461   0.000000   0.000000   0.000000   1.000000
     12       0.000000   0.000000   0.653461   0.000000   0.000000   0.000000
     13       0.000000   0.000000   0.000000   0.774408   0.000000   0.000000
     14       0.226365   0.000000   0.000000   0.000000   0.653055   0.000000
     15       0.000000   0.226365   0.000000   0.000000   0.000000   0.653055
     16       0.000000   0.000000   0.226365   0.000000   0.000000   0.000000
     17       0.000000   0.000000   0.000000   0.000000   0.000000   0.000000
     18       0.000000   0.000000   0.000000   0.000000   0.000000   0.000000
     19       0.000000   0.000000   0.000000   0.000000   0.000000   0.000000
     20       0.000000   0.000000   0.000000   0.000000   0.000000   0.000000
     21       0.000000   0.000000   0.000000   0.000000   0.000000   0.000000
     22      -0.000005  -0.040332   0.003764   0.051477  -0.000012  -0.104720
     23      -0.000005  -0.046079   0.004300   0.061439  -0.000014  -0.127300
     24       0.034467  -0.000022   0.000002   0.000009   0.077292  -0.000018
     25      -0.000022  -0.163209   0.018447   0.082383  -0.000018  -0.083148
     26       0.000002   0.018447   0.032746  -0.007688   0.000002   0.014972
     27      -0.000033  -0.289707   0.027035   0.321087  -0.000060  -0.526063
     28       0.149153  -0.000064   0.000006   0.000033   0.270839  -0.000054
     29      -0.000064  -0.413558   0.052512   0.288681  -0.000054  -0.202130
     30       0.000006   0.052512   0.144253  -0.026939   0.000005   0.044137
     31      -0.000033  -0.288681   0.026939   0.563836  -0.000068  -0.600979
     32       0.270839  -0.000054   0.000005   0.000068   0.563836  -0.000073
     33      -0.000054  -0.202130   0.044137   0.600979  -0.000073  -0.076733
     34       0.000005   0.044137   0.266720  -0.056083   0.000007   0.059777
     35      -0.000011  -0.096472   0.009003   0.594108  -0.000033  -0.292907
     36       0.165012  -0.000012   0.000001   0.000061   0.501009  -0.000030
     37      -0.000012   0.061581   0.009652   0.534013  -0.000030   0.237729
     38       0.000001   0.009652   0.164111  -0.049833   0.000003   0.024569
     39       0.000060   0.145960  -0.013621  -0.055338   0.000034  -0.007231
     40       0.220362  -0.000082   0.000010   0.000022   0.178295  -0.000017
     41      -0.020564   0.000010   0.000024  -0.000002  -0.016638   0.000003
     42      -0.000053  -0.244641   0.063957   0.094193  -0.000019   0.015386
     43       0.000010   0.066985   0.212192  -0.017734   0.000003   0.014034
     44      -0.000000  -0.000232  -0.000095   0.007584  -0.000000  -0.023745
     45      -0.000000  -0.000161  -0.000066   0.008719  -0.000000  -0.027861
     46       0.000221  -0.000000  -0.000000   0.000000   0.012340  -0.000001
     47      -0.000000  -0.002774  -0.001226   0.020284  -0.000001  -0.048550
     48      -0.000000  -0.001226  -0.000281   0.008304  -0.000000  -0.024927
     49      -0.000000  -0.015904  -0.006511   0.068564  -0.000003  -0.173240
     50       0.005309  -0.000001  -0.000000   0.000002   0.057834  -0.000004
     51      -0.000001  -0.042330  -0.019502   0.095067  -0.000004  -0.182371
     52      -0.000000  -0.019502  -0.002675   0.038918  -0.000002  -0.098335
     53      -0.000002  -0.095067  -0.038918   0.206505  -0.000006  -0.339449
     54       0.057834  -0.000004  -0.000002   0.000006   0.206505  -0.000010
     55      -0.000004  -0.182371  -0.098335   0.339449  -0.000010  -0.351477
     56      -0.000002  -0.098335   0.017578   0.138963  -0.000004  -0.228425
     57      -0.000001  -0.085480  -0.034994   0.373328  -0.000005  -0.283853
     58       0.094807  -0.000002  -0.000001   0.000009   0.314826  -0.000007
     59      -0.000002  -0.046529  -0.057860   0.517506  -0.000007  -0.078651
     60      -0.000001  -0.057860   0.071120   0.211856  -0.000003  -0.161081
     61       0.000001   0.022346   0.009148  -0.029853   0.000002   0.048518
     62       0.007881  -0.000001  -0.000001   0.000002   0.053883  -0.000003
     63       0.003226  -0.000001  -0.000000   0.000001   0.022058  -0.000002
     64      -0.000001  -0.025331  -0.016822   0.036864  -0.000002  -0.044443
     65      -0.000001  -0.029441  -0.005492   0.036259  -0.000002  -0.074654
     66      -0.000001  -0.007174   0.004391   0.048472  -0.000020  -0.117400
     67      -0.000011  -0.066211   0.040528   0.155327  -0.000049  -0.290875
     68      -0.000022  -0.132150   0.080890   0.344241  -0.000066  -0.385880
     69      -0.000000  -0.000002  -0.000001   0.001737  -0.000000  -0.007518
     70      -0.000000  -0.000812  -0.000204   0.011819  -0.000001  -0.039609
     71      -0.000001  -0.027029  -0.006803   0.073663  -0.000004  -0.147768
     72       0.000000  -0.000417  -0.000435   0.016553   0.000003  -0.039501
     73       0.000001  -0.013081  -0.013648   0.067665   0.000011  -0.124917
     74       0.000006  -0.064711  -0.067516   0.209335   0.000020  -0.231329
     75       0.000096   0.187808   0.319827   0.260542   0.000096   0.189236
     76       0.000125   0.245084   0.417365   0.569765   0.000163   0.319649
     77       0.000060   0.118275   0.201415   0.749439   0.000128   0.251677
     78      -0.000009   0.032714  -0.058655   0.050300  -0.000012   0.041894
     79      -0.000010   0.034499  -0.061857   0.053142  -0.000013   0.044764
     80       0.040895   0.000012  -0.000021   0.000006   0.051047   0.000005
     81       0.000012  -0.001797   0.076545  -0.021809   0.000005   0.033277
     82      -0.000021   0.076545  -0.096350   0.039102  -0.000009   0.031862
     83      -0.000050   0.178497  -0.320043   0.295954  -0.000061   0.217856
     84       0.167515   0.000037  -0.000067   0.000024   0.204452   0.000018
     85       0.000037   0.035125   0.237374  -0.087346   0.000018   0.140155
     86      -0.000067   0.237374  -0.258095   0.156611  -0.000032   0.115283
     87      -0.000058   0.206519  -0.370286   0.577662  -0.000088   0.314470
     88       0.364817   0.000043  -0.000077   0.000066   0.555514   0.000036
     89       0.000043   0.211868   0.274236  -0.237328   0.000036   0.426317
     90      -0.000077   0.274236  -0.126885   0.425526  -0.000065   0.231650
     91      -0.000027   0.095118  -0.170546   0.713666  -0.000063   0.223947
     92       0.292242   0.000015  -0.000026   0.000082   0.688055   0.000026
     93       0.000015   0.239536   0.094501  -0.293952   0.000026   0.595813
     94      -0.000026   0.094501   0.122802   0.527052  -0.000046   0.165388
     95       0.000050  -0.040060   0.071826  -0.018979   0.000016   0.006506
     96      -0.080775   0.000003   0.000036  -0.000004  -0.036513   0.000007
     97       0.144829   0.000036  -0.000042   0.000008   0.065467   0.000006
     98       0.000022  -0.159682  -0.003350  -0.017274   0.000004  -0.049778
     99       0.000036   0.017072   0.148292  -0.027969   0.000006   0.043989
                 12         13         14         15         16         17    
      0      -0.000000   0.065562   0.000000   0.000000   0.000000   0.000000
      1       0.000000   0.078316  -0.000000   0.000000  -0.000000   0.000000
      2       0.000000  -0.000000   0.057350   0.000000   0.000000   0.000000
      3       0.000000   0.000000   0.000000   0.057350   0.000000  -0.000000
      4       0.220230  -0.000000   0.000000   0.000000   0.057350   0.000000
      5      -0.000000   0.410096   0.000000   0.000000   0.000000   0.000000
      6       0.000000   0.000000   0.226365   0.000000   0.000000   0.000000
      7       0.000000   0.000000   0.000000   0.226365   0.000000   0.000000
      8       0.653461   0.000000   0.000000   0.000000   0.226365   0.000000
      9       0.000000   0.774408   0.000000   0.000000   0.000000   0.000000
     10       0.000000   0.000000   0.653055   0.000000   0.000000   0.000000
     11       0.000000   0.000000   0.000000   0.653055   0.000000   0.000000
     12       1.000000   0.000000   0.000000   0.000000   0.653055  -0.000000
     13       0.000000   1.000000   0.000000  -0.000000   0.000000   0.000000
     14       0.000000   0.000000   1.000000   0.000000   0.000000   0.000000
     15       0.000000  -0.000000   0.000000   1.000000   0.000000  -0.000000
     16       0.653055   0.000000   0.000000   0.000000   1.000000   0.000000
     17      -0.000000   0.000000   0.000000  -0.000000   0.000000   1.000000
     18       0.000000   0.000000   0.000000   0.000000   0.000000   0.000000
     19       0.000000   0.000000   0.000000   0.000000   0.000000   0.000000
     20      -0.000000   0.000000   0.000000   0.000000   0.000000   0.000000
     21       0.000000   0.000000   0.000000   0.000000   0.000000   0.000000
     22       0.009772   0.046675  -0.000006  -0.053787   0.005019  -0.023728
     23       0.011879   0.055642  -0.000007  -0.064501   0.006019  -0.027507
     24       0.000002   0.000003   0.041017  -0.000003   0.000000  -0.000025
     25       0.014972   0.023980  -0.000003   0.013757   0.002544  -0.098986
     26       0.075894  -0.002238   0.000000   0.002544   0.040779   0.009237
     27       0.049092   0.298945  -0.000036  -0.320510   0.029910  -0.124634
     28       0.000005   0.000011   0.165012  -0.000012   0.000001  -0.000060
     29       0.044137   0.096472  -0.000012   0.061581   0.009652  -0.145960
     30       0.266720  -0.009003   0.000001   0.009652   0.164111   0.013621
     31       0.056083   0.594108  -0.000061  -0.534013   0.049833  -0.055338
     32       0.000007   0.000033   0.501009  -0.000030   0.000003  -0.000034
     33       0.059777   0.292907  -0.000030   0.237729   0.024569   0.007231
     34       0.558257  -0.027334   0.000003   0.024569   0.498716  -0.000675
     35       0.027334   0.841653  -0.000056  -0.492060   0.045918  -0.006129
     36       0.000003   0.000056   0.841653  -0.000033   0.000003  -0.000005
     37       0.024569   0.492060  -0.000033   0.553977   0.026846   0.014088
     38       0.498716  -0.045918   0.000003   0.026846   0.839148  -0.001315
     39       0.000675  -0.006129   0.000005  -0.014088   0.001315   0.117530
     40       0.000003   0.000002   0.036002   0.000001   0.000000  -0.000094
     41       0.000020  -0.000000  -0.003360   0.000000   0.000004   0.000009
     42       0.031841   0.010432  -0.000001   0.024601   0.004424  -0.055182
     43       0.175433  -0.001964   0.000000  -0.001213   0.035802   0.010390
     44      -0.009720   0.025728  -0.000001  -0.045720  -0.018717  -0.000070
     45      -0.011406   0.030562  -0.000001  -0.054637  -0.022367  -0.000034
     46      -0.000000   0.000000   0.022792  -0.000001  -0.000000  -0.000000
     47      -0.024927   0.020550  -0.000001  -0.013233  -0.014748  -0.001176
     48       0.002135   0.008413  -0.000000  -0.014748   0.016754  -0.000481
     49      -0.070921   0.171757  -0.000005  -0.283991  -0.116260  -0.007956
     50      -0.000002   0.000001   0.094807  -0.000002  -0.000001  -0.000001
     51      -0.098335   0.085480  -0.000002  -0.046529  -0.057860  -0.022346
     52       0.017578   0.034994  -0.000001  -0.057860   0.071120  -0.009148
     53      -0.138963   0.373328  -0.000009  -0.517506  -0.211856  -0.029853
     54      -0.000004   0.000005   0.314826  -0.000007  -0.000003  -0.000002
     55      -0.228425   0.283853  -0.000007  -0.078651  -0.161081  -0.048518
     56       0.112992   0.116203  -0.000003  -0.161081   0.248883  -0.019862
     57      -0.116203   0.622147  -0.000010  -0.560941  -0.229637  -0.009591
     58      -0.000003   0.000010   0.622147  -0.000009  -0.000004  -0.000001
     59      -0.161081   0.560941  -0.000009   0.116391  -0.207045   0.002057
     60       0.248883   0.229637  -0.000004  -0.207045   0.537387   0.000842
     61       0.019862  -0.009591   0.000001  -0.002057  -0.000842   0.013386
     62      -0.000002   0.000000   0.031561  -0.000000  -0.000000  -0.000001
     63       0.000000   0.000000   0.012920  -0.000000   0.000000  -0.000000
     64      -0.062311   0.011843  -0.000000   0.011601  -0.021091  -0.015130
     65       0.014290   0.011649  -0.000000  -0.006712   0.023524  -0.014882
     66       0.071861   0.101357  -0.000025  -0.145445   0.089028  -0.003726
     67       0.178046   0.266178  -0.000059  -0.348693   0.213437  -0.033102
     68       0.236199   0.514540  -0.000091  -0.536105   0.328153  -0.031325
     69      -0.001892   0.034331  -0.000003  -0.088157  -0.022189  -0.000000
     70      -0.009970   0.099071  -0.000007  -0.232252  -0.058458  -0.000340
     71      -0.037193   0.234441  -0.000013  -0.437127  -0.110025  -0.008104
     72      -0.041213   0.071478   0.000009  -0.101114  -0.105497  -0.000190
     73      -0.130333   0.193509   0.000021  -0.249903  -0.260737  -0.008328
     74      -0.241357   0.399288   0.000035  -0.410125  -0.427905  -0.022316
     75       0.322258   0.175024   0.000038   0.075245   0.128137  -0.198780
     76       0.544345   0.438279   0.000088   0.172004   0.292914  -0.134224
     77       0.428592   0.765025   0.000122   0.238794   0.406654  -0.024937
     78      -0.075115   0.035311  -0.000005   0.016420  -0.029440  -0.044211
     79      -0.080261   0.037150  -0.000005   0.017336  -0.031084  -0.047547
     80      -0.000009   0.000001   0.020477   0.000001  -0.000001  -0.000034
     81       0.031862  -0.004798   0.000001   0.018261   0.003974   0.043927
     82      -0.006081   0.008604  -0.000001   0.003974   0.013352  -0.078760
     83      -0.390613   0.217913  -0.000027   0.097416  -0.174667  -0.184137
     84      -0.000032   0.000006   0.091423   0.000003  -0.000005  -0.000091
     85       0.115283  -0.021423   0.000003   0.081846   0.017172   0.078383
     86      -0.002250   0.038412  -0.000005   0.017172   0.060634  -0.140540
     87      -0.563842   0.487667  -0.000055   0.195118  -0.349844  -0.106377
     88      -0.000065   0.000023   0.344677   0.000009  -0.000016  -0.000074
     89       0.231650  -0.080769   0.000009   0.312361   0.057942  -0.003651
     90       0.140169   0.144818  -0.000016   0.057942   0.240788   0.006546
     91      -0.401535   0.792964  -0.000069   0.244763  -0.438857  -0.018990
     92      -0.000046   0.000049   0.752008   0.000015  -0.000027  -0.000019
     93       0.165388  -0.176219   0.000015   0.697614   0.097527  -0.016794
     94       0.391515   0.315960  -0.000027   0.097527   0.577143   0.030111
     95      -0.011665  -0.001440   0.000002   0.002264  -0.004059   0.100612
     96       0.000006  -0.000000  -0.005051   0.000001   0.000000   0.000047
     97      -0.000001   0.000001   0.009057   0.000000   0.000001  -0.000085
     98      -0.041682  -0.001311   0.000000  -0.005646  -0.007992   0.013272
     99       0.001996  -0.002122   0.000000   0.008095  -0.003326   0.021488
                 18         19         20         21         22         23    
      0       0.000000   0.000000   0.000000   0.000000   0.000037   0.000004
      1      -0.000000   0.000000   0.000000   0.000000   0.000004  -0.000001
      2       0.000000  -0.000000   0.000000   0.000000  -0.000000  -0.000000
      3       0.000000   0.000000   0.000000  -0.000000  -0.001184  -0.000428
      4       0.000000   0.000000   0.000000   0.000000   0.000110   0.000040
      5       0.000000   0.000000   0.000000   0.000000   0.012189   0.012997
      6       0.000000   0.000000   0.000000   0.000000  -0.000005  -0.000005
      7       0.000000   0.000000   0.000000   0.000000  -0.040332  -0.046079
      8       0.000000   0.000000   0.000000   0.000000   0.003764   0.004300
      9       0.000000   0.000000   0.000000   0.000000   0.051477   0.061439
     10       0.000000   0.000000   0.000000   0.000000  -0.000012  -0.000014
     11       0.000000   0.000000   0.000000   0.000000  -0.104720  -0.127300
     12       0.000000   0.000000  -0.000000   0.000000   0.009772   0.011879
     13       0.000000   0.000000   0.000000   0.000000   0.046675   0.055642
     14       0.000000   0.000000   0.000000   0.000000  -0.000006  -0.000007
     15       0.000000   0.000000   0.000000   0.000000  -0.053787  -0.064501
     16       0.000000   0.000000   0.000000   0.000000   0.005019   0.006019
     17       0.000000   0.000000   0.000000   0.000000  -0.023728  -0.027507
     18       1.000000   0.000000   0.000000   0.000000   0.000009   0.000011
     19       0.000000   1.000000   0.000000   0.000000  -0.000001  -0.000001
     20       0.000000   0.000000   1.000000   0.000000   0.040388   0.046820
     21       0.000000   0.000000   0.000000   1.000000  -0.007604  -0.008815
     22       0.000009  -0.000001   0.040388  -0.007604   1.000000   0.878444
     23       0.000011  -0.000001   0.046820  -0.008815   0.878444   1.000000
     24      -0.068532   0.006395   0.000027  -0.000005   0.000000  -0.000000
     25       0.000046  -0.000005   0.167305  -0.038007   0.000000  -0.000000
     26      -0.000005  -0.000007  -0.028403  -0.064389   0.000000   0.000000
     27       0.000049  -0.000005   0.212146  -0.039942   0.329179   0.418800
     28      -0.220362   0.020564   0.000053  -0.000010   0.000000   0.000000
     29       0.000082  -0.000010   0.244641  -0.066985   0.000000   0.000000
     30      -0.000010  -0.000024  -0.063957  -0.212192   0.000000  -0.000000
     31       0.000022  -0.000002   0.094193  -0.017734   0.153761   0.187145
     32      -0.178295   0.016638   0.000019  -0.000003   0.000000  -0.000000
     33       0.000017  -0.000003  -0.015386  -0.014034   0.000000   0.000000
     34      -0.000003  -0.000020  -0.031841  -0.175433  -0.000000   0.000000
     35       0.000002  -0.000000   0.010432  -0.001964   0.065562   0.078316
     36      -0.036002   0.003360   0.000001  -0.000000  -0.000000  -0.000000
     37      -0.000001  -0.000000  -0.024601   0.001213  -0.000000   0.000000
     38      -0.000000  -0.000004  -0.004424  -0.035802  -0.000000  -0.000000
     39      -0.000094   0.000009  -0.055182   0.010390   0.000000   0.000000
     40      -0.330660   0.038799   0.000067  -0.000017   0.000000   0.000000
     41       0.038799   0.081490  -0.000015  -0.000045  -0.000000   0.000000
     42       0.000067  -0.000015   0.164681  -0.093943   0.000000   0.000000
     43      -0.000017  -0.000045  -0.093943  -0.316593   0.000000   0.000000
     44       0.000000   0.000000   0.000087   0.000086   0.000147   0.000033
     45       0.000000   0.000000   0.000042   0.000042   0.000033  -0.000003
     46      -0.000239  -0.000098   0.000000   0.000000  -0.000000  -0.000000
     47       0.000000   0.000000   0.001383   0.001498   0.002245   0.001255
     48       0.000000   0.000000   0.000762   0.000414   0.003001   0.001677
     49       0.000000   0.000000   0.009825   0.009664   0.022458   0.024966
     50      -0.007881  -0.003226   0.000001   0.000001  -0.000006  -0.000008
     51       0.000001   0.000001   0.025331   0.029441   0.040539   0.047987
     52       0.000001   0.000000   0.016822   0.005492   0.054182   0.064137
     53       0.000002   0.000001   0.036864   0.036259   0.063226   0.075748
     54      -0.053883  -0.022058   0.000002   0.000002  -0.000011  -0.000014
     55       0.000003   0.000002   0.044443   0.074654   0.069754   0.085096
     56       0.000002  -0.000000   0.062311  -0.014290   0.093228   0.113733
     57       0.000000   0.000000   0.011843   0.011649   0.049753   0.059334
     58      -0.031561  -0.012920   0.000000   0.000000  -0.000005  -0.000006
     59       0.000000   0.000000  -0.011601   0.006712   0.031086   0.037293
     60       0.000000  -0.000000   0.021091  -0.023524   0.041548   0.049843
     61      -0.000001  -0.000000  -0.015130  -0.014882  -0.041707  -0.050908
     62      -0.012032  -0.005389   0.000001   0.000001  -0.000008  -0.000010
     63      -0.005389  -0.001073   0.000001   0.000000  -0.000011  -0.000014
     64       0.000001   0.000001   0.012258   0.026061  -0.020386  -0.024884
     65       0.000001   0.000000   0.026061   0.011396   0.069302   0.084591
     66       0.000002  -0.000001   0.002935  -0.005747   0.011866   0.010745
     67       0.000014  -0.000009   0.026081  -0.051059   0.074371   0.089124
     68       0.000013  -0.000008   0.024680  -0.048317   0.079314   0.095289
     69       0.000000   0.000000   0.000000   0.000000   0.000002   0.000000
     70       0.000000   0.000000   0.000519   0.000279   0.002285   0.002332
     71       0.000001   0.000000   0.012364   0.006645   0.024308   0.028743
     72      -0.000000  -0.000000  -0.000014   0.000328   0.000002   0.000000
     73      -0.000001  -0.000001  -0.000612   0.014412   0.002512   0.002577
     74      -0.000003  -0.000003  -0.001639   0.038617   0.025110   0.029704
     75       0.000090   0.000153  -0.167736   0.300675   0.000001   0.000000
     76       0.000061   0.000104  -0.113261   0.203027   0.001638   0.001641
     77       0.000011   0.000019  -0.021043   0.037720   0.021688   0.025604
     78      -0.000010   0.000018  -0.040239  -0.065151   0.000000   0.000000
     79      -0.000011   0.000020  -0.043276  -0.070068   0.000000   0.000000
     80       0.043758  -0.078458  -0.000018  -0.000029  -0.000000   0.000000
     81       0.000004  -0.000029   0.106733   0.023504  -0.000000   0.000000
     82      -0.000029   0.000039  -0.034455  -0.139058   0.000000  -0.000000
     83      -0.000042   0.000076  -0.167594  -0.271351   0.000001   0.000000
     84       0.142029  -0.254656  -0.000041  -0.000066  -0.000000  -0.000000
     85      -0.000003  -0.000066   0.288004  -0.018309  -0.000004  -0.000000
     86      -0.000066   0.000079  -0.007076  -0.281739   0.000002   0.000000
     87      -0.000024   0.000044  -0.096820  -0.156761   0.001816   0.001907
     88       0.154446  -0.276920  -0.000022  -0.000035  -0.000000  -0.000000
     89      -0.000024  -0.000035   0.232282  -0.150897  -0.006562  -0.007181
     90      -0.000035   0.000020   0.137361  -0.071512   0.003804   0.004163
     91      -0.000004   0.000008  -0.017284  -0.027984   0.019581   0.023136
     92       0.047952  -0.085977  -0.000003  -0.000004  -0.000000  -0.000000
     93      -0.000011  -0.000004   0.057865  -0.069928  -0.043317  -0.051770
     94      -0.000004  -0.000005   0.068204   0.019175   0.025108   0.030008
     95       0.000047  -0.000085   0.013272   0.021488  -0.000000   0.000000
     96      -0.004931   0.163094   0.000055   0.000003   0.000000  -0.000000
     97       0.163094  -0.206395  -0.000008  -0.000061  -0.000000   0.000000
     98       0.000055  -0.000008  -0.179411   0.190964   0.000000  -0.000000
     99       0.000003  -0.000061   0.190964   0.011831  -0.000001   0.000000
                 24         25         26         27         28         29    
      0       0.000000   0.001184  -0.000110   0.012189   0.000005   0.040332
      1       0.000000   0.000428  -0.000040   0.012997   0.000005   0.046079
      2       0.002170  -0.000003   0.000000  -0.000008   0.034467  -0.000022
      3      -0.000003  -0.022779   0.002328  -0.066948  -0.000022  -0.163209
      4       0.000000   0.002328   0.001953   0.006247   0.000002   0.018447
      5       0.000008   0.066948  -0.006247   0.149153   0.000033   0.289707
      6       0.034467  -0.000022   0.000002  -0.000033   0.149153  -0.000064
      7      -0.000022  -0.163209   0.018447  -0.289707  -0.000064  -0.413558
      8       0.000002   0.018447   0.032746   0.027035   0.000006   0.052512
      9       0.000009   0.082383  -0.007688   0.321087   0.000033   0.288681
     10       0.077292  -0.000018   0.000002  -0.000060   0.270839  -0.000054
     11      -0.000018  -0.083148   0.014972  -0.526063  -0.000054  -0.202130
     12       0.000002   0.014972   0.075894   0.049092   0.000005   0.044137
     13       0.000003   0.023980  -0.002238   0.298945   0.000011   0.096472
     14       0.041017  -0.000003   0.000000  -0.000036   0.165012  -0.000012
     15      -0.000003   0.013757   0.002544  -0.320510  -0.000012   0.061581
     16       0.000000   0.002544   0.040779   0.029910   0.000001   0.009652
     17      -0.000025  -0.098986   0.009237  -0.124634  -0.000060  -0.145960
     18      -0.068532   0.000046  -0.000005   0.000049  -0.220362   0.000082
     19       0.006395  -0.000005  -0.000007  -0.000005   0.020564  -0.000010
     20       0.000027   0.167305  -0.028403   0.212146   0.000053   0.244641
     21      -0.000005  -0.038007  -0.064389  -0.039942  -0.000010  -0.066985
     22       0.000000   0.000000   0.000000   0.329179   0.000000   0.000000
     23      -0.000000  -0.000000   0.000000   0.418800   0.000000   0.000000
     24       1.000000   0.000000  -0.000000  -0.000000   0.629120   0.000000
     25       0.000000   1.000000  -0.000000  -0.000000   0.000000   0.629120
     26      -0.000000  -0.000000   1.000000  -0.000000  -0.000000  -0.000000
     27      -0.000000  -0.000000  -0.000000   1.000000   0.000000  -0.000000
     28       0.629120   0.000000  -0.000000   0.000000   1.000000   0.000000
     29       0.000000   0.629120  -0.000000  -0.000000   0.000000   1.000000
     30      -0.000000  -0.000000   0.629120   0.000000   0.000000  -0.000000
     31       0.000000   0.000000  -0.000000   0.774697   0.000000   0.000000
     32       0.220230   0.000000  -0.000000   0.000000   0.653461   0.000000
     33       0.000000   0.220230   0.000000   0.000000   0.000000   0.653461
     34      -0.000000   0.000000   0.220230   0.000000   0.000000   0.000000
     35       0.000000   0.000000  -0.000000   0.410096   0.000000  -0.000000
     36       0.057350   0.000000   0.000000   0.000000   0.226365   0.000000
     37       0.000000   0.057350   0.000000  -0.000000   0.000000   0.226365
     38       0.000000   0.000000   0.057350   0.000000   0.000000  -0.000000
     39       0.000000  -0.000000   0.000000   0.000000   0.000000   0.000000
     40       0.000000   0.000000   0.000000   0.000000   0.000000   0.000000
     41       0.000000   0.000000   0.000000   0.000000   0.000000   0.000000
     42       0.000000   0.000000   0.000000   0.000000   0.000000   0.000000
     43       0.000000   0.000000   0.000000   0.000000   0.000000   0.000000
     44       0.000000  -0.002245  -0.003001   0.022458   0.000006  -0.040539
     45       0.000000  -0.001255  -0.001677   0.024966   0.000008  -0.047987
     46       0.006477   0.000004   0.000005  -0.000010   0.059387   0.000016
     47       0.000004  -0.015568  -0.029463   0.062542   0.000016  -0.040872
     48       0.000005  -0.029463  -0.032902   0.083590   0.000021  -0.134000
     49       0.000010  -0.062542  -0.083590   0.213287   0.000036  -0.224618
     50       0.059387   0.000016   0.000021  -0.000036   0.213287   0.000038
     51       0.000016  -0.040872  -0.134000   0.224618   0.000038  -0.023264
     52       0.000021  -0.134000  -0.119709   0.300209   0.000050  -0.316158
     53       0.000009  -0.054383  -0.072684   0.378899   0.000029  -0.184702
     54       0.094102   0.000009   0.000012  -0.000054   0.319603   0.000026
     55       0.000009   0.036676  -0.076752   0.336582   0.000026   0.155529
     56       0.000012  -0.076752  -0.008480   0.449853   0.000035  -0.219290
     57       0.000002  -0.013847  -0.018507   0.317247   0.000009  -0.055509
     58       0.043684   0.000001   0.000002  -0.000029   0.175114   0.000005
     59       0.000001   0.035149  -0.011407   0.184418   0.000005   0.142847
     60       0.000002  -0.011407   0.028438   0.246480   0.000007  -0.043127
     61      -0.000032   0.076767   0.102601  -0.151530  -0.000062   0.076803
     62       0.071826   0.000012   0.000031  -0.000030   0.178887   0.000007
     63       0.095998   0.000031   0.000030  -0.000040   0.239088   0.000048
     64      -0.000009   0.129620  -0.018756  -0.074068  -0.000014   0.266911
     65       0.000031  -0.100468  -0.190757   0.251790   0.000048  -0.060147
     66      -0.000015  -0.039455   0.099692   0.187937  -0.000054  -0.142412
     67      -0.000024  -0.064746   0.163596   0.426342  -0.000068  -0.180681
     68      -0.000009  -0.024522   0.061960   0.463304  -0.000032  -0.085472
     69       0.000000  -0.000078  -0.000041   0.003085   0.000000  -0.010847
     70       0.000000  -0.012429  -0.006493   0.042027   0.000003  -0.083772
     71       0.000001  -0.036658  -0.019151   0.168982   0.000005  -0.146627
     72       0.000000  -0.000019  -0.000106   0.003452   0.000002  -0.002409
     73       0.000002  -0.002693  -0.014911   0.044788   0.000015  -0.017719
     74       0.000007  -0.007508  -0.041574   0.173727   0.000026  -0.029919
     75       0.000000   0.000040   0.000016   0.002081   0.000002   0.007919
     76       0.000002   0.009897   0.003979   0.033609   0.000016   0.072583
     77       0.000008   0.035559   0.014295   0.153315   0.000032   0.144132
     78       0.000000   0.000000  -0.000000   0.000028   0.000000   0.000139
     79      -0.000000  -0.000000   0.000000   0.000021   0.000000   0.000110
     80       0.000000  -0.000000   0.000000  -0.000000   0.000075  -0.000000
     81      -0.000000  -0.000000   0.000000  -0.000203  -0.000000  -0.000874
     82       0.000000   0.000000  -0.000000   0.000118   0.000000   0.000550
     83       0.000000   0.000031  -0.000018   0.001472   0.000000   0.005223
     84       0.000008  -0.000000   0.000000  -0.000000   0.001403  -0.000000
     85      -0.000000  -0.000133   0.000082  -0.003816  -0.000000  -0.012136
     86       0.000000   0.000082  -0.000039   0.002212   0.000000   0.007848
     87       0.000000   0.008499  -0.004926   0.030330   0.000000   0.057084
     88       0.004296  -0.000000   0.000000  -0.000000   0.028853  -0.000000
     89      -0.000000  -0.024489   0.016685  -0.078506  -0.000000  -0.118899
     90       0.000000   0.016685  -0.005376   0.045506   0.000000   0.085644
     91       0.000000   0.027039  -0.015673   0.137853   0.000000   0.111608
     92       0.023770  -0.000000   0.000000  -0.000000   0.098116  -0.000000
     93      -0.000000  -0.034529   0.033793  -0.266960  -0.000000  -0.118020
     94       0.000000   0.033793   0.004182   0.154743   0.000000   0.125283
     95      -0.000000  -0.000023   0.000014  -0.001423  -0.000000  -0.004852
     96      -0.000003   0.000000  -0.000000   0.000000  -0.001356   0.000000
     97       0.000002  -0.000000   0.000000  -0.000000   0.000786  -0.000000
     98       0.000000   0.000019  -0.000014   0.001225   0.000000   0.003495
     99      -0.000000  -0.000036   0.000019  -0.002139  -0.000000  -0.007683
                 30         31         32         33         34         35    
      0      -0.003764   0.051477   0.000012   0.104720  -0.009772   0.046675
      1      -0.004300   0.061439   0.000014   0.127300  -0.011879   0.055642
      2       0.000002  -0.000009   0.077292  -0.000018   0.000002  -0.000003
      3       0.018447  -0.082383  -0.000018  -0.083148   0.014972  -0.023980
      4       0.032746   0.007688   0.000002   0.014972   0.075894   0.002238
      5      -0.027035   0.321087   0.000060   0.526063  -0.049092   0.298945
      6       0.000006  -0.000033   0.270839  -0.000054   0.000005  -0.000011
      7       0.052512  -0.288681  -0.000054  -0.202130   0.044137  -0.096472
      8       0.144253   0.026939   0.000005   0.044137   0.266720   0.009003
      9      -0.026939   0.563836   0.000068   0.600979  -0.056083   0.594108
     10       0.000005  -0.000068   0.563836  -0.000073   0.000007  -0.000033
     11       0.044137  -0.600979  -0.000073  -0.076733   0.059777  -0.292907
     12       0.266720   0.056083   0.000007   0.059777   0.558257   0.027334
     13      -0.009003   0.594108   0.000033   0.292907  -0.027334   0.841653
     14       0.000001  -0.000061   0.501009  -0.000030   0.000003  -0.000056
     15       0.009652  -0.534013  -0.000030   0.237729   0.024569  -0.492060
     16       0.164111   0.049833   0.000003   0.024569   0.498716   0.045918
     17       0.013621  -0.055338  -0.000034   0.007231  -0.000675  -0.006129
     18      -0.000010   0.000022  -0.178295   0.000017  -0.000003   0.000002
     19      -0.000024  -0.000002   0.016638  -0.000003  -0.000020  -0.000000
     20      -0.063957   0.094193   0.000019  -0.015386  -0.031841   0.010432
     21      -0.212192  -0.017734  -0.000003  -0.014034  -0.175433  -0.001964
     22       0.000000   0.153761   0.000000   0.000000  -0.000000   0.065562
     23      -0.000000   0.187145  -0.000000   0.000000   0.000000   0.078316
     24      -0.000000   0.000000   0.220230   0.000000  -0.000000   0.000000
     25      -0.000000   0.000000   0.000000   0.220230   0.000000   0.000000
     26       0.629120  -0.000000  -0.000000   0.000000   0.220230  -0.000000
     27       0.000000   0.774697   0.000000   0.000000   0.000000   0.410096
     28       0.000000   0.000000   0.653461   0.000000   0.000000   0.000000
     29      -0.000000   0.000000   0.000000   0.653461   0.000000  -0.000000
     30       1.000000   0.000000   0.000000   0.000000   0.653461   0.000000
     31       0.000000   1.000000   0.000000   0.000000   0.000000   0.774408
     32       0.000000   0.000000   1.000000   0.000000   0.000000   0.000000
     33       0.000000   0.000000   0.000000   1.000000   0.000000   0.000000
     34       0.653461   0.000000   0.000000   0.000000   1.000000   0.000000
     35       0.000000   0.774408   0.000000   0.000000   0.000000   1.000000
     36       0.000000   0.000000   0.653055   0.000000   0.000000   0.000000
     37      -0.000000   0.000000   0.000000   0.653055   0.000000   0.000000
     38       0.226365   0.000000   0.000000   0.000000   0.653055   0.000000
     39       0.000000   0.000000   0.000000   0.000000   0.000000   0.000000
     40       0.000000   0.000000  -0.000000   0.000000   0.000000   0.000000
     41       0.000000   0.000000   0.000000   0.000000   0.000000   0.000000
     42       0.000000   0.000000   0.000000  -0.000000   0.000000   0.000000
     43       0.000000   0.000000   0.000000   0.000000  -0.000000   0.000000
     44      -0.054182   0.063226   0.000011  -0.069754  -0.093228   0.049753
     45      -0.064137   0.075748   0.000014  -0.085096  -0.113733   0.059334
     46       0.000021  -0.000009   0.094102   0.000009   0.000012  -0.000002
     47      -0.134000   0.054383   0.000009   0.036676  -0.076752   0.013847
     48      -0.119709   0.072684   0.000012  -0.076752  -0.008480   0.018507
     49      -0.300209   0.378899   0.000054  -0.336582  -0.449853   0.317247
     50       0.000050  -0.000029   0.319603   0.000026   0.000035  -0.000009
     51      -0.316158   0.184702   0.000026   0.155529  -0.219290   0.055509
     52      -0.209269   0.246860   0.000035  -0.219290   0.026515   0.074189
     53      -0.246860   0.627954   0.000058  -0.362901  -0.485029   0.624455
     54       0.000035  -0.000058   0.627954   0.000033   0.000045  -0.000027
     55      -0.219290   0.362901   0.000033   0.418230  -0.280303   0.166925
     56       0.026515   0.485029   0.000045  -0.280303   0.253320   0.223100
     57      -0.074189   0.624455   0.000027  -0.166925  -0.223100   0.869372
     58       0.000007  -0.000049   0.526600   0.000013   0.000017  -0.000044
     59      -0.043127   0.304328   0.000013   0.445250  -0.108728   0.275578
     60       0.117474   0.406744   0.000017  -0.108728   0.381282   0.368319
     61       0.102650  -0.053517  -0.000029  -0.016286  -0.021767  -0.005288
     62       0.000048  -0.000011   0.115131  -0.000008   0.000013  -0.000001
     63       0.000035  -0.000014   0.153876   0.000013  -0.000001  -0.000001
     64      -0.121441  -0.026159  -0.000004   0.139661  -0.121091  -0.002585
     65      -0.221051   0.088927   0.000013   0.070487   0.003678   0.008786
     66       0.359839   0.266777  -0.000052  -0.137890   0.348413   0.176373
     67       0.456535   0.580268  -0.000087  -0.231664   0.585355   0.441361
     68       0.215966   0.757678  -0.000068  -0.181069   0.457515   0.769301
     69      -0.005667   0.056625   0.000005  -0.137535  -0.071852   0.106609
     70      -0.043765   0.175167   0.000012  -0.328926  -0.171839   0.278742
     71      -0.076602   0.369923   0.000015  -0.415803  -0.217226   0.533766
     72      -0.013339   0.059086   0.000025  -0.028484  -0.157721   0.108093
     73      -0.098111   0.181024   0.000059  -0.067465  -0.373568   0.282282
     74      -0.165665   0.377278   0.000073  -0.084166  -0.466043   0.539150
     75       0.003184   0.048765   0.000029   0.128314   0.051585   0.101556
     76       0.029180   0.156053   0.000071   0.317481   0.127633   0.266654
     77       0.057944   0.345203   0.000094   0.420388   0.169004   0.515273
     78      -0.000081   0.005843   0.000000   0.016999  -0.009853   0.018261
     79      -0.000064   0.006020   0.000000   0.017723  -0.010273   0.019167
     80       0.000000  -0.000000   0.006210  -0.000000   0.000000  -0.000000
     81       0.000550  -0.009273  -0.000000  -0.020192   0.015304  -0.008711
     82      -0.000244   0.005375   0.000000   0.015304  -0.002661   0.005049
     83      -0.003028   0.044126   0.000000   0.113520  -0.065801   0.115600
     84       0.000000  -0.000000   0.030483  -0.000000   0.000000  -0.000000
     85       0.007848  -0.045514  -0.000000  -0.086608   0.067872  -0.039719
     86      -0.003146   0.026382   0.000000   0.067872  -0.008859   0.023023
     87      -0.033088   0.141390   0.000000   0.269005  -0.155928   0.276508
     88       0.000000  -0.000000   0.135969  -0.000000   0.000000  -0.000000
     89       0.085644  -0.203015  -0.000000  -0.250282   0.223889  -0.160053
     90      -0.020790   0.117677   0.000000   0.223889   0.006192   0.092774
     91      -0.064693   0.317066   0.000000   0.347726  -0.201558   0.511860
     92       0.000000  -0.000000   0.305688  -0.000000   0.000000  -0.000000
     93       0.125283  -0.456422  -0.000000  -0.194868   0.290146  -0.397546
     94       0.025496   0.264564   0.000000   0.290146   0.137506   0.230436
     95       0.002813  -0.010091  -0.000000  -0.016965   0.009834  -0.002932
     96      -0.000000   0.000000  -0.017524   0.000000  -0.000000   0.000000
     97       0.000000  -0.000000   0.010158  -0.000000   0.000000  -0.000000
     98      -0.003598   0.008687   0.000000   0.005790  -0.023672   0.002524
     99       0.003553  -0.015167  -0.000000  -0.030546   0.006070  -0.004407
                 36         37         38         39         40         41    
      0       0.000006   0.053787  -0.005019  -0.023728   0.000009  -0.000001
      1       0.000007   0.064501  -0.006019  -0.027507   0.000011  -0.000001
      2       0.041017  -0.000003   0.000000   0.000025   0.068532  -0.006395
      3      -0.000003   0.013757   0.002544   0.098986  -0.000046   0.000005
      4       0.000000   0.002544   0.040779  -0.009237   0.000005   0.000007
      5       0.000036   0.320510  -0.029910  -0.124634   0.000049  -0.000005
      6       0.165012  -0.000012   0.000001   0.000060   0.220362  -0.020564
      7      -0.000012   0.061581   0.009652   0.145960  -0.000082   0.000010
      8       0.000001   0.009652   0.164111  -0.013621   0.000010   0.000024
      9       0.000061   0.534013  -0.049833  -0.055338   0.000022  -0.000002
     10       0.501009  -0.000030   0.000003   0.000034   0.178295  -0.016638
     11      -0.000030   0.237729   0.024569  -0.007231  -0.000017   0.000003
     12       0.000003   0.024569   0.498716   0.000675   0.000003   0.000020
     13       0.000056   0.492060  -0.045918  -0.006129   0.000002  -0.000000
     14       0.841653  -0.000033   0.000003   0.000005   0.036002  -0.003360
     15      -0.000033   0.553977   0.026846  -0.014088   0.000001   0.000000
     16       0.000003   0.026846   0.839148   0.001315   0.000000   0.000004
     17      -0.000005   0.014088  -0.001315   0.117530  -0.000094   0.000009
     18      -0.036002  -0.000001  -0.000000  -0.000094  -0.330660   0.038799
     19       0.003360  -0.000000  -0.000004   0.000009   0.038799   0.081490
     20       0.000001  -0.024601  -0.004424  -0.055182   0.000067  -0.000015
     21      -0.000000   0.001213  -0.035802   0.010390  -0.000017  -0.000045
     22      -0.000000  -0.000000  -0.000000   0.000000   0.000000  -0.000000
     23      -0.000000   0.000000  -0.000000   0.000000   0.000000   0.000000
     24       0.057350   0.000000   0.000000   0.000000   0.000000   0.000000
     25       0.000000   0.057350   0.000000  -0.000000   0.000000   0.000000
     26       0.000000   0.000000   0.057350   0.000000   0.000000   0.000000
     27       0.000000  -0.000000   0.000000   0.000000   0.000000   0.000000
     28       0.226365   0.000000   0.000000   0.000000   0.000000   0.000000
     29       0.000000   0.226365  -0.000000   0.000000   0.000000   0.000000
     30       0.000000  -0.000000   0.226365   0.000000   0.000000   0.000000
     31       0.000000   0.000000   0.000000   0.000000   0.000000   0.000000
     32       0.653055   0.000000   0.000000   0.000000  -0.000000   0.000000
     33       0.000000   0.653055   0.000000   0.000000   0.000000   0.000000
     34       0.000000   0.000000   0.653055   0.000000   0.000000   0.000000
     35       0.000000   0.000000   0.000000   0.000000   0.000000   0.000000
     36       1.000000   0.000000   0.000000   0.000000  -0.000000   0.000000
     37       0.000000   1.000000   0.000000   0.000000   0.000000   0.000000
     38       0.000000   0.000000   1.000000   0.000000   0.000000   0.000000
     39       0.000000   0.000000   0.000000   1.000000   0.000000   0.000000
     40      -0.000000   0.000000   0.000000   0.000000   1.000000   0.000000
     41       0.000000   0.000000   0.000000   0.000000   0.000000   1.000000
     42       0.000000  -0.000000   0.000000   0.000000   0.000000   0.000000
     43       0.000000   0.000000  -0.000000   0.000000   0.000000   0.000000
     44       0.000005  -0.031086  -0.041548  -0.041707  -0.000008  -0.000011
     45       0.000006  -0.037293  -0.049843  -0.050908  -0.000010  -0.000014
     46       0.043684   0.000001   0.000002   0.000032  -0.071826  -0.095998
     47       0.000001   0.035149  -0.011407  -0.076767  -0.000012  -0.000031
     48       0.000002  -0.011407   0.028438  -0.102601  -0.000031  -0.000030
     49       0.000029  -0.184418  -0.246480  -0.151530  -0.000030  -0.000040
     50       0.175114   0.000005   0.000007   0.000062  -0.178887  -0.239088
     51       0.000005   0.142847  -0.043127  -0.076803  -0.000007  -0.000048
     52       0.000007  -0.043127   0.117474  -0.102650  -0.000048  -0.000035
     53       0.000049  -0.304328  -0.406744  -0.053517  -0.000011  -0.000014
     54       0.526600   0.000013   0.000017   0.000029  -0.115131  -0.153876
     55       0.000013   0.445250  -0.108728   0.016286   0.000008  -0.000013
     56       0.000017  -0.108728   0.381282   0.021767  -0.000013   0.000001
     57       0.000044  -0.275578  -0.368319  -0.005288  -0.000001  -0.000001
     58       0.869372   0.000014   0.000019   0.000004  -0.020739  -0.027718
     59       0.000014   0.782018  -0.116752   0.008841   0.000003  -0.000001
     60       0.000019  -0.116752   0.713329   0.011816  -0.000001   0.000002
     61      -0.000004  -0.008841  -0.011816   0.135304   0.000054   0.000072
     62       0.020739  -0.000003   0.000001   0.000054  -0.058976  -0.259579
     63       0.027718   0.000001  -0.000002   0.000072  -0.259579  -0.211694
     64      -0.000000   0.022270  -0.025671   0.000030   0.000049  -0.000018
     65       0.000001   0.022512   0.013781  -0.000103  -0.000018  -0.000049
     66      -0.000020  -0.053959   0.136340  -0.205808   0.000036  -0.000092
     67      -0.000046  -0.123264   0.311456  -0.133807   0.000024  -0.000060
     68      -0.000064  -0.170882   0.431776  -0.024298   0.000004  -0.000011
     69       0.000005  -0.153401  -0.080141  -0.005655  -0.000001  -0.000000
     70       0.000013  -0.366152  -0.191287  -0.039811  -0.000004  -0.000002
     71       0.000020  -0.557659  -0.291335  -0.032408  -0.000003  -0.000002
     72       0.000027  -0.030870  -0.170931  -0.006334  -0.000001  -0.000003
     73       0.000064  -0.073594  -0.407502  -0.041835  -0.000004  -0.000022
     74       0.000097  -0.111796  -0.619036  -0.032681  -0.000003  -0.000017
     75       0.000035   0.158320   0.063648  -0.003787   0.000003   0.000001
     76       0.000085   0.379495   0.152564  -0.033343   0.000022   0.000009
     77       0.000130   0.583250   0.234477  -0.031369   0.000021   0.000008
     78       0.000000   0.029676  -0.017202  -0.000037   0.000000  -0.000000
     79       0.000000   0.031260  -0.018120  -0.000024   0.000000  -0.000000
     80       0.010637  -0.000000   0.000000   0.000000   0.000060  -0.000035
     81      -0.000000  -0.003425   0.008151   0.000333  -0.000000   0.000000
     82       0.000000   0.008151   0.005912  -0.000193   0.000000  -0.000000
     83       0.000000   0.180610  -0.104690  -0.002593   0.000000  -0.000000
     84       0.048499  -0.000000   0.000000   0.000000   0.001805  -0.001046
     85      -0.000000  -0.013557   0.035970   0.006850  -0.000000   0.000000
     86       0.000000   0.035970   0.027649  -0.003971   0.000000  -0.000000
     87       0.000000   0.386649  -0.224120  -0.026222   0.000000  -0.000000
     88       0.195433  -0.000000   0.000000   0.000000   0.034366  -0.019920
     89      -0.000000  -0.028374   0.129729   0.053832  -0.000000   0.000000
     90       0.000000   0.129729   0.120236  -0.031204   0.000000  -0.000000
     91       0.000001   0.552177  -0.320068  -0.023757   0.000000  -0.000000
     92       0.485423  -0.000000   0.000000   0.000000   0.054152  -0.031389
     93      -0.000000   0.056565   0.248586   0.016355  -0.000000   0.000000
     94       0.000000   0.248586   0.341330  -0.009480   0.000000   0.000000
     95      -0.000000   0.000715  -0.000414   0.002871  -0.000000   0.000000
     96      -0.009283   0.000000  -0.000000  -0.000000  -0.001705   0.001072
     97       0.005381  -0.000000  -0.000000   0.000000   0.001072  -0.000478
     98       0.000000  -0.005284  -0.007698  -0.002348   0.000000  -0.000000
     99      -0.000000  -0.001600  -0.005236   0.004100  -0.000000   0.000000
                 42         43         44         45         46         47    
      0       0.040388  -0.007604   0.000000  -0.000000   0.000000   0.000000
      1       0.046820  -0.008815  -0.000000   0.000000  -0.000000  -0.000000
      2      -0.000027   0.000005  -0.000000   0.000000   0.000000  -0.000000
      3      -0.167305   0.038007  -0.000000   0.000000  -0.000000  -0.000002
      4       0.028403   0.064389  -0.000000   0.000000  -0.000000  -0.000001
      5       0.212146  -0.039942   0.000047   0.000029   0.000000   0.000663
      6      -0.000053   0.000010  -0.000000  -0.000000   0.000221  -0.000000
      7      -0.244641   0.066985  -0.000232  -0.000161  -0.000000  -0.002774
      8       0.063957   0.212192  -0.000095  -0.000066  -0.000000  -0.001226
      9       0.094193  -0.017734   0.007584   0.008719   0.000000   0.020284
     10      -0.000019   0.000003  -0.000000  -0.000000   0.012340  -0.000001
     11       0.015386   0.014034  -0.023745  -0.027861  -0.000001  -0.048550
     12       0.031841   0.175433  -0.009720  -0.011406  -0.000000  -0.024927
     13       0.010432  -0.001964   0.025728   0.030562   0.000000   0.020550
     14      -0.000001   0.000000  -0.000001  -0.000001   0.022792  -0.000001
     15       0.024601  -0.001213  -0.045720  -0.054637  -0.000001  -0.013233
     16       0.004424   0.035802  -0.018717  -0.022367  -0.000000  -0.014748
     17      -0.055182   0.010390  -0.000070  -0.000034  -0.000000  -0.001176
     18       0.000067  -0.000017   0.000000   0.000000  -0.000239   0.000000
     19      -0.000015  -0.000045   0.000000   0.000000  -0.000098   0.000000
     20       0.164681  -0.093943   0.000087   0.000042   0.000000   0.001383
     21      -0.093943  -0.316593   0.000086   0.000042   0.000000   0.001498
     22       0.000000   0.000000   0.000147   0.000033  -0.000000   0.002245
     23       0.000000   0.000000   0.000033  -0.000003  -0.000000   0.001255
     24       0.000000   0.000000   0.000000   0.000000   0.006477   0.000004
     25       0.000000   0.000000  -0.002245  -0.001255   0.000004  -0.015568
     26       0.000000   0.000000  -0.003001  -0.001677   0.000005  -0.029463
     27       0.000000   0.000000   0.022458   0.024966  -0.000010   0.062542
     28       0.000000   0.000000   0.000006   0.000008   0.059387   0.000016
     29       0.000000   0.000000  -0.040539  -0.047987   0.000016  -0.040872
     30       0.000000   0.000000  -0.054182  -0.064137   0.000021  -0.134000
     31       0.000000   0.000000   0.063226   0.075748  -0.000009   0.054383
     32       0.000000   0.000000   0.000011   0.000014   0.094102   0.000009
     33      -0.000000   0.000000  -0.069754  -0.085096   0.000009   0.036676
     34       0.000000  -0.000000  -0.093228  -0.113733   0.000012  -0.076752
     35       0.000000   0.000000   0.049753   0.059334  -0.000002   0.013847
     36       0.000000   0.000000   0.000005   0.000006   0.043684   0.000001
     37      -0.000000   0.000000  -0.031086  -0.037293   0.000001   0.035149
     38       0.000000  -0.000000  -0.041548  -0.049843   0.000002  -0.011407
     39       0.000000   0.000000  -0.041707  -0.050908   0.000032  -0.076767
     40       0.000000   0.000000  -0.000008  -0.000010  -0.071826  -0.000012
     41       0.000000   0.000000  -0.000011  -0.000014  -0.095998  -0.000031
     42       1.000000   0.000000  -0.020386  -0.024884   0.000009  -0.129620
     43       0.000000   1.000000   0.069302   0.084591  -0.000031   0.100468
     44      -0.020386   0.069302   1.000000   0.878444   0.000000   0.000000
     45      -0.024884   0.084591   0.878444   1.000000   0.000000  -0.000000
     46       0.000009  -0.000031   0.000000   0.000000   1.000000  -0.000000
     47      -0.129620   0.100468   0.000000  -0.000000  -0.000000   1.000000
     48       0.018756   0.190757   0.000000  -0.000000  -0.000000   0.000000
     49      -0.074068   0.251790   0.329179   0.418800  -0.000000  -0.000000
     50       0.000014  -0.000048   0.000000  -0.000000   0.629120   0.000000
     51      -0.266911   0.060147  -0.000000   0.000000   0.000000   0.629120
     52       0.121441   0.221051  -0.000000   0.000000  -0.000000   0.000000
     53      -0.026159   0.088927   0.153761   0.187145  -0.000000   0.000000
     54       0.000004  -0.000013  -0.000000   0.000000   0.220230  -0.000000
     55      -0.139661  -0.070487   0.000000  -0.000000  -0.000000   0.220230
     56       0.121091  -0.003678   0.000000  -0.000000   0.000000   0.000000
     57      -0.002585   0.008786   0.065562   0.078316  -0.000000   0.000000
     58       0.000000  -0.000001   0.000000  -0.000000   0.057350  -0.000000
     59      -0.022270  -0.022512  -0.000000   0.000000  -0.000000   0.057350
     60       0.025671  -0.013781  -0.000000  -0.000000   0.000000  -0.000000
     61       0.000030  -0.000103   0.000000   0.000000  -0.000000  -0.000000
     62       0.000049  -0.000018   0.000000   0.000000   0.000000  -0.000000
     63      -0.000018  -0.000049   0.000000   0.000000  -0.000000   0.000000
     64      -0.362800  -0.146561   0.000000   0.000000   0.000000   0.000000
     65      -0.146561   0.092315   0.000000   0.000000   0.000000  -0.000000
     66      -0.259923  -0.243947   0.000002   0.000000  -0.000000   0.000017
     67      -0.168991  -0.158604   0.002325   0.002375  -0.000002   0.002689
     68      -0.030687  -0.028800   0.024455   0.028919  -0.000005   0.007848
     69       0.005594   0.008040   0.012053   0.010945  -0.000006  -0.108043
     70       0.039386   0.056600   0.074801   0.089658  -0.000010  -0.175894
     71       0.032062   0.046075   0.079468   0.095477  -0.000004  -0.066393
     72      -0.010277   0.003837   0.011986   0.010874   0.000020   0.042480
     73      -0.067883   0.025346   0.074649   0.089469   0.000032   0.069353
     74      -0.053029   0.019799   0.079414   0.095410   0.000012   0.026209
     75       0.004734   0.004540   0.000000   0.000000   0.000000   0.000000
     76       0.041681   0.039974   0.000002   0.000001   0.000000   0.000020
     77       0.039213   0.037607   0.001934   0.002204   0.000001   0.004748
     78       0.000032  -0.000055   0.000000   0.000000   0.000000   0.000000
     79       0.000021  -0.000036   0.000000   0.000000   0.000000   0.000000
     80      -0.000000   0.000000   0.000000   0.000000   0.000000   0.000000
     81      -0.000256   0.000518   0.000000   0.000000   0.000000   0.000000
     82       0.000219  -0.000260   0.000000   0.000000   0.000000   0.000000
     83       0.002232  -0.003897   0.000000  -0.000000  -0.000000   0.000000
     84      -0.000000   0.000000   0.000000  -0.000000   0.000000   0.000000
     85      -0.004989   0.010816  -0.000000   0.000000   0.000000  -0.000002
     86       0.004985  -0.005071   0.000000  -0.000000  -0.000000   0.000000
     87       0.022573  -0.039411   0.000220   0.000210  -0.000000   0.001625
     88      -0.000000   0.000000   0.000000   0.000000   0.000592   0.000000
     89      -0.029056   0.090809  -0.001098  -0.001098   0.000000  -0.007033
     90       0.056683  -0.029818   0.000049   0.000049  -0.000000   0.000343
     91       0.020451  -0.035706   0.009300   0.010894  -0.000001   0.018151
     92      -0.000000   0.000000   0.000001   0.000001   0.011504   0.000002
     93       0.013159   0.040182  -0.028529  -0.033812   0.000002  -0.042777
     94       0.055151   0.012666   0.001282   0.001520  -0.000000   0.002439
     95      -0.002348   0.004100  -0.000000   0.000000   0.000000  -0.000000
     96       0.000000  -0.000000  -0.000000   0.000000  -0.000000  -0.000000
     97      -0.000000   0.000000   0.000000  -0.000000   0.000000   0.000000
     98       0.000305  -0.004594   0.000000  -0.000000  -0.000000   0.000000
     99      -0.004594   0.005695  -0.000000   0.000000   0.000000  -0.000000
                 48         49         50         51         52         53    
      0       0.000000   0.000047   0.000000   0.000232   0.000095   0.007584
      1      -0.000000   0.000029   0.000000   0.000161   0.000066   0.008719
      2      -0.000000  -0.000000   0.000221  -0.000000  -0.000000  -0.000000
      3      -0.000001  -0.000663  -0.000000  -0.002774  -0.001226  -0.020284
      4      -0.000000  -0.000271  -0.000000  -0.001226  -0.000281  -0.008304
      5       0.000271   0.005309   0.000000   0.015904   0.006511   0.068564
      6      -0.000000  -0.000000   0.005309  -0.000001  -0.000000  -0.000002
      7      -0.001226  -0.015904  -0.000001  -0.042330  -0.019502  -0.095067
      8      -0.000281  -0.006511  -0.000000  -0.019502  -0.002675  -0.038918
      9       0.008304   0.068564   0.000002   0.095067   0.038918   0.206505
     10      -0.000000  -0.000003   0.057834  -0.000004  -0.000002  -0.000006
     11      -0.024927  -0.173240  -0.000004  -0.182371  -0.098335  -0.339449
[...]
  2C   1dx2y2    -0.225948 -0.153193 -0.226086  0.000002 -0.042610 -0.050800
  2C   1dxy       0.683315  0.583165  0.771974  0.000004 -0.023845  0.135543
  3H   1s        -0.658389 -0.266401  0.123358  0.000010 -0.055377  0.041721
  3H   2s         0.578227  0.375808 -0.241410 -0.000074  0.080820 -0.008934
  3H   3s         0.347144  0.347065 -0.287756 -0.000101 -0.165107 -0.065852
  4H   1s         0.361227  0.251796  0.216820 -0.000005 -0.003654  0.035190
  4H   2s        -0.344078 -0.229540 -0.092585  0.000013  0.005770 -0.009331
  4H   3s        -0.171940 -0.246751 -0.090212  0.000044  0.028401 -0.059428
  5H   1s         0.252531  0.202201  0.259888  0.000004 -0.015912  0.033133
  5H   2s        -0.170003 -0.075648 -0.209099 -0.000053 -0.051266 -0.003139
  5H   3s         0.151143  0.030853 -0.161964 -0.000054 -0.032441 -0.132395
  6H   1s         0.202688 -0.256877 -0.208040 -0.000004  0.072622  0.097338
  6H   2s        -0.192376  0.142102  0.245250  0.000029  0.019917 -0.024921
  6H   3s         0.039757 -0.110528  0.257900  0.000041  0.307901 -0.229653
  7O   1s        -0.006362 -0.004120  0.017120 -0.000001 -0.000245  0.019650
  7O   2s        -0.015860 -0.006132  0.035891 -0.000001 -0.000541  0.037215
  7O   1pz       -0.000007  0.000036 -0.000041 -1.288370  0.000265  0.000180
  7O   1px        0.020491 -0.085047  0.163545  0.000139  1.125291 -0.639952
  7O   1py       -0.071440  0.212790 -0.218636  0.000288  0.641550  1.122343
  7O   3s         0.225105 -0.171874 -0.180923  0.000016  0.010055 -0.188487
  7O   2pz        0.000010  0.000014 -0.000015  1.550375 -0.000323 -0.000298
  7O   2px       -0.056180 -0.047679  0.085975 -0.000172 -1.381129  1.072499
  7O   2py        0.080900  0.069899 -0.167608 -0.000344 -0.788975 -1.877119
  7O   4s        -0.983778  2.358382 -1.450499 -0.000090 -0.045598 -1.316238
  7O   3pz       -0.000090  0.000187 -0.000149 -0.944363  0.000205  0.000053
  7O   3px        0.408461 -0.747837  0.593039  0.000130  0.948932 -0.215011
  7O   3py       -0.543508  1.428556 -0.838170  0.000191  0.490242  0.357015
  7O   5s        -0.982730  0.877191  0.102105 -0.000164  0.166131  1.439288
  7O   4pz       -0.000024  0.000106  0.000036  0.501482 -0.000075  0.000003
  7O   4px        0.061187 -0.003326 -0.205736 -0.000032 -0.594274 -0.019850
  7O   4py       -0.327459 -0.083987  0.358701 -0.000172 -0.163656 -0.039255
  7O   1dz2       0.267408 -0.489735  0.167992  0.000005  0.008116  0.232219
  7O   1dxz       0.000048 -0.000097  0.000124 -0.007781 -0.000001  0.000070
  7O   1dyz      -0.000109  0.000195 -0.000068  0.020959 -0.000016 -0.000099
  7O   1dx2y2     0.152550 -0.563669  0.169329  0.000003  0.048894  0.237165
  7O   1dxy       0.332452 -0.677496  0.504382  0.000002 -0.016095  0.392152
                     96        97        98        99   
                  24.31290  24.62758  25.08212  51.25243
                   0.00000   0.00000   0.00000   0.00000
                  --------  --------  --------  --------
  0C   1s         0.592809  1.947334 -0.047011  0.011872
  0C   2s        -0.640480 -2.129545  0.052723 -0.019240
  0C   1pz       -0.000002  0.000011  0.000002  0.000002
  0C   1px       -0.050904  0.018529  0.021630 -0.020001
  0C   1py        0.024412  0.032758 -0.004191  0.024195
  0C   3s         0.178377  0.642937 -0.048085  0.002957
  0C   2pz       -0.000003 -0.000053  0.000000 -0.000006
  0C   2px        0.191282 -0.034458 -0.018188  0.066442
  0C   2py       -0.128667 -0.204087  0.016252 -0.069407
  0C   4s         0.021320 -0.437947  0.006981 -0.192441
  0C   3pz       -0.000034  0.000007  0.000004  0.000039
  0C   3px       -0.138866  0.066211  0.012807 -0.016671
  0C   3py       -0.094800 -0.025522  0.032534  0.251344
  0C   5s        -1.270534 -0.043839 -0.003732  0.163690
  0C   4pz        0.000016 -0.000005  0.000004 -0.000017
  0C   4px        0.274453 -0.035727  0.000058 -0.007770
  0C   4py        0.022306 -0.047330 -0.003057 -0.042480
  0C   1dz2      -0.010670 -0.097977 -0.016893 -0.013813
  0C   1dxz      -0.000023 -0.000002  0.000008 -0.000012
  0C   1dyz       0.000020  0.000021 -0.000009  0.000008
  0C   1dx2y2    -0.109642  0.021332  0.013793 -0.044349
  0C   1dxy      -0.043206 -0.119862 -0.008197 -0.048557
  1C   1s         1.311951 -0.436203 -1.495563  0.002172
  1C   2s        -1.408908  0.473777  1.654952 -0.003595
  1C   1pz        0.000000  0.000005  0.000010 -0.000001
  1C   1px       -0.029480  0.066468 -0.053383 -0.012063
  1C   1py       -0.017322  0.010847 -0.079273 -0.001333
  1C   3s         0.359896 -0.098892 -0.592223 -0.009085
  1C   2pz        0.000002 -0.000013 -0.000056  0.000003
  1C   2px        0.142054 -0.210796  0.307640  0.057279
  1C   2py        0.058727 -0.057043  0.449669  0.009929
  1C   4s        -0.505749  0.094526  0.165866  0.161055
  1C   3pz       -0.000011  0.000010  0.000018  0.000004
  1C   3px       -0.101763  0.106826 -0.012325 -0.026682
  1C   3py        0.095012  0.064998 -0.128306 -0.222976
  1C   5s         1.755613  0.062150 -0.438299 -0.218508
  1C   4pz        0.000078  0.000002 -0.000015  0.000013
  1C   4px        0.304704 -0.024940  0.071364  0.005114
  1C   4py       -0.277335  0.057772  0.101539  0.030895
  1C   1dz2       0.016723  0.031233  0.131627 -0.005054
  1C   1dxz       0.000013 -0.000027  0.000029 -0.000001
  1C   1dyz       0.000005 -0.000010  0.000033 -0.000003
  1C   1dx2y2     0.048406 -0.110181  0.058903  0.020861
  1C   1dxy      -0.063186  0.039575 -0.242695 -0.019792
  2C   1s         1.429296 -0.404763  1.392175  0.003404
  2C   2s        -1.535991  0.440853 -1.541422 -0.005811
  2C   1pz       -0.000000  0.000000  0.000010  0.000002
  2C   1px        0.003304  0.003151 -0.058503  0.000072
  2C   1py        0.003668  0.002594 -0.079093 -0.000123
  2C   3s         0.390113 -0.150231  0.552923  0.014893
  2C   2pz       -0.000004  0.000003 -0.000054 -0.000007
  2C   2px        0.024119 -0.049484  0.331089  0.006645
  2C   2py        0.032088 -0.048894  0.445390  0.012433
  2C   4s        -0.284855  0.174433 -0.166571 -0.201272
  2C   3pz       -0.000003 -0.000006  0.000003  0.000017
  2C   3px        0.054264  0.014967 -0.083288 -0.067504
  2C   3py        0.006858  0.033499 -0.046017 -0.042840
  2C   5s        -0.598283 -0.113493  0.436877  0.122191
  2C   4pz        0.000003  0.000003 -0.000011 -0.000015
  2C   4px       -0.076075 -0.038365  0.073935  0.013949
  2C   4py       -0.042213 -0.049406  0.100087  0.034120
  2C   1dz2      -0.001106  0.001040 -0.127702 -0.003590
  2C   1dxz      -0.000001  0.000005 -0.000031 -0.000001
  2C   1dyz      -0.000002 -0.000005 -0.000034 -0.000001
  2C   1dx2y2     0.000421 -0.003064 -0.074047 -0.002801
  2C   1dxy       0.001045 -0.030207  0.241530  0.006561
  3H   1s        -0.008837 -0.011473 -0.034187 -0.003880
  3H   2s        -0.031399 -0.002002  0.030947  0.047454
  3H   3s         0.048545 -0.047542  0.010079  0.058221
  4H   1s        -0.009181 -0.000968  0.029585  0.000340
  4H   2s        -0.015117 -0.007182 -0.013994  0.004102
  4H   3s         0.152568 -0.007551 -0.004821 -0.012758
  5H   1s        -0.007475 -0.005912  0.027830 -0.002541
  5H   2s        -0.031866 -0.003723  0.007159  0.023247
  5H   3s         0.105322 -0.026954  0.020655  0.001445
  6H   1s        -0.012621  0.022797  0.002240  0.014943
  6H   2s         0.011462 -0.007965 -0.005475 -0.036277
  6H   3s         0.124660  0.078968 -0.013226 -0.060737
  7O   1s         0.006639  0.009727  0.000319 -2.247709
  7O   2s        -0.000182 -0.000777  0.000016  2.342843
  7O   1pz        0.000003  0.000009  0.000002  0.000003
  7O   1px       -0.019658 -0.026632  0.001513 -0.009322
  7O   1py        0.027102  0.055175 -0.000643  0.015458
  7O   3s        -0.009282  0.011665 -0.006122 -0.327289
  7O   2pz       -0.000012 -0.000026 -0.000004 -0.000011
  7O   2px        0.067669  0.081361 -0.003829  0.039361
  7O   2py       -0.098384 -0.168378  0.001733 -0.064551
  7O   4s        -0.238172 -0.339671  0.033026  0.419266
  7O   3pz       -0.000015 -0.000020  0.000002  0.000010
  7O   3px        0.046940  0.068122 -0.011665 -0.058750
  7O   3py       -0.056730 -0.118978  0.012111  0.065886
  7O   5s         0.201044  0.314642 -0.009461 -0.083019
  7O   4pz        0.000024  0.000018 -0.000001  0.000009
  7O   4px       -0.008002 -0.096605  0.007959 -0.008427
  7O   4py        0.068131  0.128641 -0.007010  0.015903
  7O   1dz2       0.025031  0.063452 -0.000507  0.007953
  7O   1dxz       0.000010  0.000012  0.000001  0.000002
  7O   1dyz      -0.000009 -0.000028 -0.000004 -0.000004
  7O   1dx2y2     0.021346  0.060822  0.000648  0.009296
  7O   1dxy       0.050626  0.082435 -0.006200  0.012146



                    ********************************
                    * MULLIKEN POPULATION ANALYSIS *
                    ********************************

--------------------------------------------
MULLIKEN ATOMIC CHARGES AND SPIN POPULATIONS
--------------------------------------------
   0 C :   -0.126833   -0.215113
   1 C :    0.004561    0.350499
   2 C :   -0.474389   -0.358646
   3 H :    0.339094   -0.016407
   4 H :    0.348741    0.023943
   5 H :    0.312611    0.024836
   6 H :    0.403193    0.110120
   7 O :    0.193021    1.080769
Sum of atomic charges         :    1.0000000
Sum of atomic spin populations:    1.0000000

-----------------------------------------------------
MULLIKEN REDUCED ORBITAL CHARGES AND SPIN POPULATIONS
-----------------------------------------------------
CHARGE
  0 C s       :     3.401544  s :     3.401544
      pz      :     0.528380  p :     2.596634
      px      :     1.115002
      py      :     0.953252
      dz2     :     0.008959  d :     0.128655
      dxz     :     0.020448
      dyz     :     0.026574
      dx2y2   :     0.030596
      dxy     :     0.042078
  1 C s       :     2.839449  s :     2.839449
      pz      :     1.121585  p :     3.089351
      px      :     0.815014
      py      :     1.152753
      dz2     :     0.005982  d :     0.066639
      dxz     :     0.002157
      dyz     :     0.006079
      dx2y2   :     0.032745
      dxy     :     0.019676
  2 C s       :     3.424243  s :     3.424243
      pz      :     0.653707  p :     2.984914
      px      :     1.218212
      py      :     1.112996
      dz2     :     0.007336  d :     0.065232
      dxz     :     0.005558
      dyz     :     0.007518
      dx2y2   :     0.025585
      dxy     :     0.019235
  3 H s       :     0.660906  s :     0.660906
  4 H s       :     0.651259  s :     0.651259
  5 H s       :     0.687389  s :     0.687389
  6 H s       :     0.596807  s :     0.596807
  7 O s       :     3.863413  s :     3.863413
      pz      :     1.622735  p :     3.923918
      px      :     1.070846
      py      :     1.230337
      dz2     :     0.002258  d :     0.019648
      dxz     :     0.001295
      dyz     :     0.003964
      dx2y2   :     0.005170
      dxy     :     0.006961

SPIN
  0 C s       :    -0.070768  s :    -0.070768
      pz      :    -0.019912  p :    -0.175128
      px      :    -0.086430
      py      :    -0.068785
      dz2     :     0.000308  d :     0.030782
      dxz     :     0.002543
      dyz     :    -0.001275
      dx2y2   :     0.020041
      dxy     :     0.009166
  1 C s       :     0.063401  s :     0.063401
      pz      :     0.178938  p :     0.291781
      px      :     0.085244
      py      :     0.027599
      dz2     :    -0.000901  d :    -0.004682
      dxz     :    -0.000878
      dyz     :    -0.002416
      dx2y2   :     0.000712
      dxy     :    -0.001200
  2 C s       :    -0.054770  s :    -0.054770
      pz      :    -0.263038  p :    -0.306150
      px      :    -0.023973
      py      :    -0.019140
      dz2     :     0.001813  d :     0.002274
      dxz     :     0.000114
      dyz     :    -0.000020
      dx2y2   :     0.000439
      dxy     :    -0.000072
  3 H s       :    -0.016407  s :    -0.016407
  4 H s       :     0.023943  s :     0.023943
  5 H s       :     0.024836  s :     0.024836
  6 H s       :     0.110120  s :     0.110120
  7 O s       :     0.066233  s :     0.066233
      pz      :     0.106559  p :     1.015381
      px      :     0.686493
      py      :     0.222329
      dz2     :     0.000202  d :    -0.000845
      dxz     :    -0.000149
      dyz     :    -0.000465
      dx2y2   :    -0.000105
      dxy     :    -0.000328


                     *******************************
                     * LOEWDIN POPULATION ANALYSIS *
                     *******************************

-------------------------------------------
LOEWDIN ATOMIC CHARGES AND SPIN POPULATIONS
-------------------------------------------
   0 C :    0.144613   -0.045122
   1 C :   -0.235186    0.227791
   2 C :   -0.020576   -0.265919
   3 H :    0.213054   -0.007607
   4 H :    0.207709    0.011642
   5 H :    0.197337    0.011494
   6 H :    0.265934    0.078367
   7 O :    0.227114    0.989354

----------------------------------------------------
LOEWDIN REDUCED ORBITAL CHARGES AND SPIN POPULATIONS
----------------------------------------------------
CHARGE
  0 C s       :     2.871080  s :     2.871080
      pz      :     0.531379  p :     2.734773
      px      :     1.142169
      py      :     1.061226
      dz2     :     0.021052  d :     0.249534
      dxz     :     0.034299
      dyz     :     0.042886
      dx2y2   :     0.065837
      dxy     :     0.085460
  1 C s       :     2.848402  s :     2.848402
      pz      :     1.080916  p :     3.257696
      px      :     1.013717
      py      :     1.163063
      dz2     :     0.011023  d :     0.129087
      dxz     :     0.004099
      dyz     :     0.007527
      dx2y2   :     0.066348
      dxy     :     0.040090
  2 C s       :     2.931018  s :     2.931018
      pz      :     0.667191  p :     2.984301
      px      :     1.162904
      py      :     1.154206
      dz2     :     0.009117  d :     0.105257
      dxz     :     0.008191
      dyz     :     0.012340
      dx2y2   :     0.041862
      dxy     :     0.033746
  3 H s       :     0.786946  s :     0.786946
  4 H s       :     0.792291  s :     0.792291
  5 H s       :     0.802663  s :     0.802663
  6 H s       :     0.734066  s :     0.734066
  7 O s       :     3.551278  s :     3.551278
      pz      :     1.606428  p :     4.193987
      px      :     1.152088
      py      :     1.435471
      dz2     :     0.003810  d :     0.027621
      dxz     :     0.001199
      dyz     :     0.003546
      dx2y2   :     0.008036
      dxy     :     0.011031

SPIN
  0 C s       :    -0.021870  s :    -0.021870
      pz      :    -0.017620  p :    -0.091447
      px      :    -0.039781
      py      :    -0.034046
      dz2     :     0.001867  d :     0.068195
      dxz     :     0.005042
      dyz     :     0.001565
      dx2y2   :     0.040262
      dxy     :     0.019459
  1 C s       :     0.021487  s :     0.021487
      pz      :     0.151382  p :     0.217725
      px      :     0.055487
      py      :     0.010857
      dz2     :    -0.001152  d :    -0.011421
      dxz     :    -0.002166
      dyz     :    -0.004042
      dx2y2   :    -0.001328
      dxy     :    -0.002733
  2 C s       :    -0.014640  s :    -0.014640
      pz      :    -0.240060  p :    -0.259053
      px      :    -0.010578
      py      :    -0.008414
      dz2     :     0.001795  d :     0.007774
      dxz     :     0.001378
      dyz     :     0.001960
      dx2y2   :     0.001435
      dxy     :     0.001206
  3 H s       :    -0.007607  s :    -0.007607
  4 H s       :     0.011642  s :     0.011642
  5 H s       :     0.011494  s :     0.011494
  6 H s       :     0.078367  s :     0.078367
  7 O s       :     0.021175  s :     0.021175
      pz      :     0.103241  p :     0.969661
      px      :     0.659263
      py      :     0.207157
      dz2     :    -0.000152  d :    -0.001482
      dxz     :    -0.000149
      dyz     :    -0.000530
      dx2y2   :    -0.000469
      dxy     :    -0.000182


                      *****************************
                      * MAYER POPULATION ANALYSIS *
                      *****************************

  NA   - Mulliken gross atomic population
  ZA   - Total nuclear charge
  QA   - Mulliken gross atomic charge
  VA   - Mayer's total valence
  BVA  - Mayer's bonded valence
  FA   - Mayer's free valence

  ATOM       NA         ZA         QA         VA         BVA        FA
  0 C      6.1268     6.0000    -0.1268     3.7879     3.7615     0.0264
  1 C      5.9954     6.0000     0.0046     3.6123     3.5654     0.0469
  2 C      6.4744     6.0000    -0.4744     4.0266     3.9545     0.0721
  3 H      0.6609     1.0000     0.3391     0.8741     0.8738     0.0003
  4 H      0.6513     1.0000     0.3487     0.8671     0.8666     0.0005
  5 H      0.6874     1.0000     0.3126     0.8825     0.8819     0.0006
  6 H      0.5968     1.0000     0.4032     0.8131     0.8013     0.0118
  7 O      7.8070     8.0000     0.1930     2.3404     1.5077     0.8326

  Mayer bond orders larger than 0.1
B(  0-C ,  1-C ) :   1.0932 B(  0-C ,  2-C ) :   0.3329 B(  0-C ,  6-H ) :   0.7827 
B(  0-C ,  7-O ) :   1.5122 B(  1-C ,  2-C ) :   1.7654 B(  1-C ,  3-H ) :   0.8080 
B(  2-C ,  4-H ) :   0.8770 B(  2-C ,  5-H ) :   0.8657 

-------
TIMINGS
-------

Total SCF time: 0 days 0 hours 0 min 55 sec 

Total time                  ....      55.149 sec
Sum of individual times     ....      55.469 sec  (100.6%)

Fock matrix formation       ....      54.811 sec  ( 99.4%)
Diagonalization             ....       0.226 sec  (  0.4%)
Density matrix formation    ....       0.009 sec  (  0.0%)
Population analysis         ....       0.006 sec  (  0.0%)
Initial guess               ....       0.270 sec  (  0.5%)
Orbital Transformation      ....       0.000 sec  (  0.0%)
Orbital Orthonormalization  ....       0.000 sec  (  0.0%)
DIIS solution               ....       0.052 sec  (  0.1%)

-------------------------   --------------------
FINAL SINGLE POINT ENERGY      -190.486519496618
-------------------------   --------------------


                            ***************************************
                            *     ORCA property calculations      *
                            ***************************************

                                    ---------------------
                                    Active property flags
                                    ---------------------
   (+) Dipole Moment


------------------------------------------------------------------------------
                       ORCA ELECTRIC PROPERTIES CALCULATION
------------------------------------------------------------------------------

Dipole Moment Calculation                       ... on
Quadrupole Moment Calculation                   ... off
Polarizability Calculation                      ... off
GBWName                                         ... acrolein_orca_cat.gbw
Electron density file                           ... acrolein_orca_cat.scfp.tmp

-------------
DIPOLE MOMENT
-------------
                                X             Y             Z
Electronic contribution:      3.13947      -0.53920      -0.00015
Nuclear contribution   :     -3.27926       1.18505       0.00036
                        -----------------------------------------
Total Dipole Moment    :     -0.13979       0.64586       0.00022
                        -----------------------------------------
Magnitude (a.u.)       :      0.66081
Magnitude (Debye)      :      1.67965


Timings for individual modules:

Sum of individual times         ...       55.560 sec (=   0.926 min)
GTO integral calculation        ...        0.127 sec (=   0.002 min)   0.2 %
SCF iterations                  ...       55.433 sec (=   0.924 min)  99.8 %
                             ****ORCA TERMINATED NORMALLY****
TOTAL RUN TIME: 0 days 0 hours 0 minutes 55 seconds 632 msec
