----- GAMESS execution script 'rungms' -----
This job is running on host multivac2
under operating system Linux at Sat Jan 5 13:35:43 -03 2019
Available scratch disk space (Kbyte units) at beginning of the job is
Filesystem      1K-blocks     Used  Available Use% Mounted on
/dev/sda4      1650447924 65469164 1501117820   5% /
GAMESS temporary binary files will be written to /home/igorchem/programs/src
GAMESS supplementary output files will be written to /home/igorchem/programs/usrsrc
Copying input file metano_an.inp to your run's scratch directory...
 
Assuming a single but multicore node.
 

 Distributed Data Interface kickoff program.
 Initiating 4 compute processes on 1 nodes to run the following command:
 /home/igorchem/programs/gamess/gamess.00.x metano_an 

          ******************************************************
          *         GAMESS VERSION = 11 NOV 2017 (R3)         *
          *             FROM IOWA STATE UNIVERSITY             *
          * M.W.SCHMIDT, K.K.BALDRIDGE, J.A.BOATZ, S.T.ELBERT, *
          *   M.S.GORDON, J.H.JENSEN, S.KOSEKI, N.MATSUNAGA,   *
          *          K.A.NGUYEN, S.J.SU, T.L.WINDUS,           *
          *       TOGETHER WITH M.DUPUIS, J.A.MONTGOMERY       *
          *         J.COMPUT.CHEM.  14, 1347-1363(1993)        *
          **************** 64 BIT LINUX VERSION ****************

  SINCE 1993, STUDENTS AND POSTDOCS WORKING AT IOWA STATE UNIVERSITY
  AND ALSO IN THEIR VARIOUS JOBS AFTER LEAVING ISU HAVE MADE IMPORTANT
  CONTRIBUTIONS TO THE CODE:
     IVANA ADAMOVIC, CHRISTINE AIKENS, YURI ALEXEEV, POOJA ARORA,
     ANDREY ASADCHEV, ROB BELL, PRADIPTA BANDYOPADHYAY, JONATHAN BENTZ,
     BRETT BODE, KURT BRORSEN, CALEB CARLIN, GALINA CHABAN, WEI CHEN,
     CHEOL HO CHOI, PAUL DAY, ALBERT DEFUSCO, NUWAN DESILVA, TIM DUDLEY,
     DMITRI FEDOROV, ALEX FINDLATER, GRAHAM FLETCHER, MARK FREITAG,
     KURT GLAESEMANN, ANASTASIA GUININA,
     DAN KEMP, GRANT MERRILL, NORIYUKI MINEZAWA, JONATHAN MULLIN,
     TAKESHI NAGATA, SEAN NEDD, HEATHER NETZLOFF, BOSILJKA NJEGIC, RYAN OLSON,
     MIKE PAK, BUU PHAM,
     SPENCER PRUITT, LUKE ROSKOP, JIM SHOEMAKER, LYUDMILA SLIPCHENKO,
     TONY SMITH, SAROM SOK LEANG, JIE SONG, TETSUYA TAKETSUGU, SIMON WEBB,
     PENG XU, SOOHAENG YOO, FEDERICO ZAHARIEV

  ADDITIONAL CODE HAS BEEN PROVIDED BY COLLABORATORS IN OTHER GROUPS:
     IOWA STATE UNIVERSITY:
          JOE IVANIC, AARON WEST, LAIMUTIS BYTAUTAS, KLAUS RUEDENBERG
     UNIVERSITY OF TOKYO: KIMIHIKO HIRAO, TAKAHITO NAKAJIMA,
          TAKAO TSUNEDA, MUNEAKI KAMIYA, SUSUMU YANAGISAWA,
          KIYOSHI YAGI, MAHITO CHIBA, SEIKEN TOKURA, NAOAKI KAWAKAMI
     UNIVERSITY OF AARHUS: FRANK JENSEN
     UNIVERSITY OF IOWA: VISVALDAS KAIRYS, HUI LI
     NATIONAL INST. OF STANDARDS AND TECHNOLOGY: WALT STEVENS, DAVID GARMER
     UNIVERSITY OF PISA: BENEDETTA MENNUCCI, JACOPO TOMASI
     UNIVERSITY OF MEMPHIS: HENRY KURTZ, PRAKASHAN KORAMBATH
     UNIVERSITY OF ALBERTA: TOBY ZENG, MARIUSZ KLOBUKOWSKI
     UNIVERSITY OF NEW ENGLAND: MARK SPACKMAN
     MIE UNIVERSITY: HIROAKI UMEDA
     NAT. INST. OF ADVANCED INDUSTRIAL SCIENCE AND TECHNOLOGY: KAZUO KITAURA
     MICHIGAN STATE UNIVERSITY:
          KAROL KOWALSKI, MARTA WLOCH, JEFFREY GOUR, JESSE LUTZ,
          WEI LI, PIOTR PIECUCH
     UNIVERSITY OF SILESIA: MONIKA MUSIAL, STANISLAW KUCHARSKI
     FACULTES UNIVERSITAIRES NOTRE-DAME DE LA PAIX:
          OLIVIER QUINET, BENOIT CHAMPAGNE
     UNIVERSITY OF CALIFORNIA - SANTA BARBARA: BERNARD KIRTMAN
     INSTITUTE FOR MOLECULAR SCIENCE:
          KAZUYA ISHIMURA, MICHIO KATOUDA, AND SHIGERU NAGASE
     UNIVERSITY OF NOTRE DAME: ANNA POMOGAEVA, DAN CHIPMAN
     KYUSHU UNIVERSITY:
          HARUYUKI NAKANO,
          FENG LONG GU, JACEK KORCHOWIEC, MARCIN MAKOWSKI, AND YURIKO AOKI,
          HIROTOSHI MORI AND EISAKU MIYOSHI
     PENNSYLVANIA STATE UNIVERSITY:
          TZVETELIN IORDANOV, CHET SWALINA, JONATHAN SKONE,
          SHARON HAMMES-SCHIFFER
     WASEDA UNIVERSITY:
          MASATO KOBAYASHI, TOMOKO AKAMA, TSUGUKI TOUMA,
          TAKESHI YOSHIKAWA, YASUHIRO IKABATA, JUNJI SEINO,
          YUYA NAKAJIMA, HIROMI NAKAI
     NANJING UNIVERSITY: SHUHUA LI
     UNIVERSITY OF NEBRASKA:
          PEIFENG SU, DEJUN SI, NANDUN THELLAMUREGE, YALI WANG, HUI LI
     UNIVERSITY OF ZURICH: ROBERTO PEVERATI, KIM BALDRIDGE
     N. COPERNICUS UNIVERSITY AND JACKSON STATE UNIVERSITY:
          MARIA BARYSZ
     UNIVERSITY OF COPENHAGEN: Jimmy Kromann, CASPER STEINMANN
     TOKYO INSTITUTE OF TECHNOLOGY: HIROYA NAKATA
     NAGOYA UNIVERSITY: YOSHIO NISHIMOTO, STEPHAN IRLE
     MOSCOW STATE UNIVERSITY: VLADIMIR MIRONOV


 PARALLEL VERSION RUNNING ON        4 PROCESSORS IN        1 NODES.

 EXECUTION OF GAMESS BEGUN Sat Jan  5 13:35:43 2019

            ECHO OF THE FIRST FEW INPUT CARDS -
 INPUT CARD>! ================================================================              
 INPUT CARD>! This file was generated by Gabedit                                            
 INPUT CARD>! ================================================================              
 INPUT CARD> $SYSTEM MWORDS=20 $END                                                         
 INPUT CARD> $CONTRL RUNTYP=Energy $END                                                     
 INPUT CARD> $CONTRL SCFTYP=UHF $END                                                        
 INPUT CARD> $CONTRL ICHARG=-1  MULT=2 $END                                                 
 INPUT CARD> $BASIS GBASIS=N311 NGAUSS=6 $END                                               
 INPUT CARD> $BASIS NDFUNC=1 NFFUNC=1 $END                                                  
 INPUT CARD> $BASIS DIFFSP=.TRUE. DIFFS=.TRUE. $END                                         
 INPUT CARD> $SCF DIRSCF=.TRUE. $END                                                        
 INPUT CARD> $DATA                                                                          
 INPUT CARD>Molecule specification                                                          
 INPUT CARD>C1                                                                              
 INPUT CARD>C  6.000000 0.000001 0.000001 0.000001                                          
 INPUT CARD>H  1.000000 -0.847018 -0.618048 0.297781                                        
 INPUT CARD>H  1.000000 0.612664 -0.544903 -0.718207                                        
 INPUT CARD>H  1.000000 0.598776 0.243097 0.877770                                          
 INPUT CARD>H  1.000000 -0.364422 0.919853 -0.457346                                        
 INPUT CARD> $END                                                                           
   20000000 WORDS OF MEMORY AVAILABLE

     BASIS OPTIONS
     -------------
     GBASIS=N311         IGAUSS=       6      POLAR=POPN311 
     NDFUNC=       1     NFFUNC=       1     DIFFSP=       T
     NPFUNC=       0      DIFFS=       T     BASNAM=        


     RUN TITLE
     ---------
 Molecule specification                                                          

 THE POINT GROUP OF THE MOLECULE IS C1      
 THE ORDER OF THE PRINCIPAL AXIS IS     0

 ATOM      ATOMIC                      COORDINATES (BOHR)
           CHARGE         X                   Y                   Z
 C           6.0     0.0000018897        0.0000018897        0.0000018897
 H           1.0    -1.6006319267       -1.1679413673        0.5627244943
 H           1.0     1.1577670825       -1.0297173599       -1.3572144325
 H           1.0     1.1315225680        0.4593867184        1.6587447802
 H           1.0    -0.6886577239        1.7382701190       -0.8642586216

          INTERNUCLEAR DISTANCES (ANGS.)
          ------------------------------

                1 C          2 H          3 H          4 H          5 H     

   1 C       0.0000000    1.0899994 *  1.0899996 *  1.0900026 *  1.0899991 *
   2 H       1.0899994 *  0.0000000    1.7799588 *  1.7799658 *  1.7799593 *
   3 H       1.0899996 *  1.7799588 *  0.0000000    1.7799661 *  1.7799595 *
   4 H       1.0900026 *  1.7799658 *  1.7799661 *  0.0000000    1.7799674 *
   5 H       1.0899991 *  1.7799593 *  1.7799595 *  1.7799674 *  0.0000000  

  * ... LESS THAN  3.000


     ATOMIC BASIS SET
     ----------------
 THE CONTRACTED PRIMITIVE FUNCTIONS HAVE BEEN UNNORMALIZED
 THE CONTRACTED BASIS FUNCTIONS ARE NOW NORMALIZED TO UNITY

  SHELL TYPE  PRIMITIVE        EXPONENT          CONTRACTION COEFFICIENT(S)

 C         

      1   S       1          4563.2400000    0.001966650249
      1   S       2           682.0240000    0.015230601932
      1   S       3           154.9730000    0.076126909656
      1   S       4            44.4553000    0.260801033080
      1   S       5            13.0290000    0.616462078191
      1   S       6             1.8277300    0.221006028032

      2   L       7            20.9642000    0.114660080729    0.040248692673
      2   L       8             4.8033100    0.919999647749    0.237593956746
      2   L       9             1.4593300   -0.003030682134    0.815853851473

      3   L      10             0.4834560    1.000000000000    1.000000000000

      4   L      11             0.1455850    1.000000000000    1.000000000000

      5   L      12             0.0438000    1.000000000000    1.000000000000

      6   D      13             0.6260000    1.000000000000

      7   F      14             0.8000000    1.000000000000

 H         

      8   S      15            33.8650000    0.025493814541
      8   S      16             5.0947900    0.190373108582
      8   S      17             1.1587900    0.852161486043

      9   S      18             0.3258400    1.000000000000

     10   S      19             0.1027410    1.000000000000

     11   S      20             0.0360000    1.000000000000

 H         

     12   S      21            33.8650000    0.025493814541
     12   S      22             5.0947900    0.190373108582
     12   S      23             1.1587900    0.852161486043

     13   S      24             0.3258400    1.000000000000

     14   S      25             0.1027410    1.000000000000

     15   S      26             0.0360000    1.000000000000

 H         

     16   S      27            33.8650000    0.025493814541
     16   S      28             5.0947900    0.190373108582
     16   S      29             1.1587900    0.852161486043

     17   S      30             0.3258400    1.000000000000

     18   S      31             0.1027410    1.000000000000

     19   S      32             0.0360000    1.000000000000

 H         

     20   S      33            33.8650000    0.025493814541
     20   S      34             5.0947900    0.190373108582
     20   S      35             1.1587900    0.852161486043

     21   S      36             0.3258400    1.000000000000

     22   S      37             0.1027410    1.000000000000

     23   S      38             0.0360000    1.000000000000

 TOTAL NUMBER OF BASIS SET SHELLS             =   23
 NUMBER OF CARTESIAN GAUSSIAN BASIS FUNCTIONS =   49
 NUMBER OF ELECTRONS                          =   11
 CHARGE OF MOLECULE                           =   -1
 SPIN MULTIPLICITY                            =    2
 NUMBER OF OCCUPIED ORBITALS (ALPHA)          =    6
 NUMBER OF OCCUPIED ORBITALS (BETA )          =    5
 TOTAL NUMBER OF ATOMS                        =    5
 THE NUCLEAR REPULSION ENERGY IS       13.4353882208

     $CONTRL OPTIONS
     ---------------
 SCFTYP=UHF          RUNTYP=ENERGY       EXETYP=RUN     
 MPLEVL=       0     CITYP =NONE         CCTYP =NONE         VBTYP =NONE    
 DFTTYP=NONE         TDDFT =NONE    
 MULT  =       2     ICHARG=      -1     NZVAR =       0     COORD =UNIQUE  
 PP    =NONE         RELWFN=NONE         LOCAL =NONE         NUMGRD=       F
 ISPHER=      -1     NOSYM =       0     MAXIT =      30     UNITS =ANGS    
 PLTORB=       F     MOLPLT=       F     AIMPAC=       F     FRIEND=        
 NPRINT=       7     IREST =       0     GEOM  =INPUT   
 NORMF =       0     NORMP =       0     ITOL  =      20     ICUT  =       9
 INTTYP=BEST         GRDTYP=BEST         QMTTOL= 1.0E-06

     $SYSTEM OPTIONS
     ---------------
  REPLICATED MEMORY=    20000000 WORDS (ON EVERY NODE).
 DISTRIBUTED MEMDDI=           0 MILLION WORDS IN AGGREGATE,
 MEMDDI DISTRIBUTED OVER   4 PROCESSORS IS           0 WORDS/PROCESSOR.
 TOTAL MEMORY REQUESTED ON EACH PROCESSOR=    20000000 WORDS.
 TIMLIM=      525600.00 MINUTES, OR     365.0 DAYS.
 PARALL= T  BALTYP=  DLB     KDIAG=    0  COREFL= F
 MXSEQ2=     300 MXSEQ3=     150  mem10=         0

          ----------------
          PROPERTIES INPUT
          ----------------

     MOMENTS            FIELD           POTENTIAL          DENSITY
 IEMOM =       1   IEFLD =       0   IEPOT =       0   IEDEN =       0
 WHERE =COMASS     WHERE =NUCLEI     WHERE =NUCLEI     WHERE =NUCLEI  
 OUTPUT=BOTH       OUTPUT=BOTH       OUTPUT=BOTH       OUTPUT=BOTH    
 IEMINT=       0   IEFINT=       0                     IEDINT=       0
                                                       MORB  =       0
          EXTRAPOLATION IN EFFECT
          SOSCF IN EFFECT
          DIIS or SOSCF will be reset if energy rises
 ORBITAL PRINTING OPTION: NPREO=     1    49     2     1

     -------------------------------
     INTEGRAL TRANSFORMATION OPTIONS
     -------------------------------
     NWORD  =            0
     CUTOFF = 1.0E-09     MPTRAN =       0
     DIRTRF =       T     AOINTS =DUP     

          ----------------------
          INTEGRAL INPUT OPTIONS
          ----------------------
 NOPK  =       1 NORDER=       0 SCHWRZ=       T

     ------------------------------------------
     THE POINT GROUP IS C1 , NAXIS= 0, ORDER= 1
     ------------------------------------------

     DIMENSIONS OF THE SYMMETRY SUBSPACES ARE
 A   =   49

 ..... DONE SETTING UP THE RUN .....
 CPU     0: STEP CPU TIME=     0.05 TOTAL CPU TIME=          0.0 (      0.0 MIN)
 TOTAL WALL CLOCK TIME=          0.5 SECONDS, CPU UTILIZATION IS    10.87%

          ********************
          1 ELECTRON INTEGRALS
          ********************
 ...... END OF ONE-ELECTRON INTEGRALS ......
 CPU     0: STEP CPU TIME=     0.00 TOTAL CPU TIME=          0.0 (      0.0 MIN)
 TOTAL WALL CLOCK TIME=          0.5 SECONDS, CPU UTILIZATION IS    10.64%

          -------------
          GUESS OPTIONS
          -------------
          GUESS =HUCKEL            NORB  =       0          NORDER=       0
          MIX   =       F          PRTMO =       F          PUNMO =       F
          TOLZ  = 1.0E-08          TOLE  = 1.0E-05
          SYMDEN=       F          PURIFY=       F

 INITIAL GUESS ORBITALS GENERATED BY HUCKEL   ROUTINE.
 HUCKEL GUESS REQUIRES     21450 WORDS.

 SYMMETRIES FOR INITIAL GUESS ORBITALS FOLLOW.  ALPHA SET(S).
     6 ORBITALS ARE OCCUPIED (    1 CORE ORBITALS).
     2=A        3=A        4=A        5=A        6=A        7=A        8=A   
     9=A       10=A       11=A       12=A       13=A       14=A       15=A   
    16=A   

 SYMMETRIES FOR INITIAL GUESS ORBITALS FOLLOW.   BETA SET(S).
     5 ORBITALS ARE OCCUPIED (    1 CORE ORBITALS).
     2=A        3=A        4=A        5=A        6=A        7=A        8=A   
     9=A       10=A       11=A       12=A       13=A       14=A       15=A   
 ...... END OF INITIAL ORBITAL SELECTION ......
 CPU     0: STEP CPU TIME=     0.00 TOTAL CPU TIME=          0.0 (      0.0 MIN)
 TOTAL WALL CLOCK TIME=          0.5 SECONDS, CPU UTILIZATION IS     9.80%

                    ----------------------
                    AO INTEGRAL TECHNOLOGY
                    ----------------------
     S,P,L SHELL ROTATED AXIS INTEGRALS, REPROGRAMMED BY
        KAZUYA ISHIMURA (IMS) AND JOSE SIERRA (SYNSTAR).
     S,P,D,L SHELL ROTATED AXIS INTEGRALS PROGRAMMED BY
        KAZUYA ISHIMURA (INSTITUTE FOR MOLECULAR SCIENCE).
     S,P,D,F,G SHELL TO TOTAL QUARTET ANGULAR MOMENTUM SUM 5,
        ERIC PROGRAM BY GRAHAM FLETCHER (ELORET AND NASA ADVANCED
        SUPERCOMPUTING DIVISION, AMES RESEARCH CENTER).
     S,P,D,F,G,L SHELL GENERAL RYS QUADRATURE PROGRAMMED BY
        MICHEL DUPUIS (PACIFIC NORTHWEST NATIONAL LABORATORY).

          --------------------
          2 ELECTRON INTEGRALS
          --------------------

 DIRECT SCF METHOD SKIPS INTEGRAL STORAGE ON DISK.
 DIRECT TRANSFORMATION SKIPS AO INTEGRAL STORAGE ON DISK.
  ...... END OF TWO-ELECTRON INTEGRALS .....
 CPU     0: STEP CPU TIME=     0.04 TOTAL CPU TIME=          0.1 (      0.0 MIN)
 TOTAL WALL CLOCK TIME=          0.6 SECONDS, CPU UTILIZATION IS    16.36%

          ---------------------------
                  UHF SCF CALCULATION
          ---------------------------

     NUCLEAR ENERGY =        13.4353882208
     MAXIT = 30     NPUNCH=  2     MULT=  2
     EXTRAP=T  DAMP=F  SHIFT=F  RSTRCT=F  DIIS=F  SOSCF=T
     DENSITY MATRIX CONV=  2.00E-05
     SOSCF WILL OPTIMIZE     258 ALPHA AND     220 BETA ROTATION ANGLES.
     SOGTOL= 2.500E-01
     MEMORY REQUIRED FOR UHF/ROHF ITERS=     82792 WORDS.

 DIRECT SCF CALCULATION, SCHWRZ=T   FDIFF=T
 SCHWARZ INEQUALITY OVERHEAD:      1225 INTEGRALS, T=        0.01

                                                                                NONZERO     BLOCKS
 ITER EX      TOTAL ENERGY        E CHANGE  DENSITY CHANGE    ORB. GRAD       INTEGRALS    SKIPPED
   1  0      -39.4249116308   -39.4249116308  74.793644689   0.000000000         615572          0
          ---------------START SECOND ORDER SCF---------------
   2  1      -40.0659436976    -0.6410320667  29.776243332   0.095941022         615572          0
   3  2      -40.1430493426    -0.0771056450   3.854472758   0.055838006         615572          0
   4  3      -40.1633630496    -0.0203137070   2.872431902   0.006066883         615572          0
   5  4      -40.1640576397    -0.0006945901   1.549912747   0.002598405         615572          0
   6  5      -40.1641638412    -0.0001062015   0.119351484   0.000691122         615572          0
   7  6      -40.1641737561    -0.0000099149   0.073050926   0.000324352         615572          0
   8  7      -40.1641755328    -0.0000017767   0.046153258   0.000139790         615551         21
   9  8      -40.1641759952    -0.0000004625   0.014543390   0.000078340         615551         21
  10  9      -40.1641760807    -0.0000000854   0.005589442   0.000032771         615545         27
  11 10      -40.1641761003    -0.0000000196   0.003020643   0.000009768         615543         29
  12 11      -40.1641761042    -0.0000000040   0.000995167   0.000007814         615530         42
  13 12      -40.1641761049    -0.0000000007   0.000516063   0.000002221         615435         58
  14 13      -40.1641761050    -0.0000000001   0.000169948   0.000000820         615303        167
  15 14      -40.1641761050    -0.0000000000   0.000033939   0.000000276         613869        327
  16 15      -40.1641761049     0.0000000000   0.000026722   0.000000113         612245        593

          ----------------
          ENERGY CONVERGED
          ----------------
     TIME TO FORM FOCK OPERATORS=       0.2 SECONDS (       0.0 SEC/ITER)
     FOCK TIME ON FIRST ITERATION=       0.0, LAST ITERATION=       0.0
     TIME TO SOLVE SCF EQUATIONS=       0.0 SECONDS (       0.0 SEC/ITER)

 FINAL UHF ENERGY IS      -40.1641761049 AFTER  16 ITERATIONS

          --------------------
          SPIN SZ   =    0.500
          S-SQUARED =    0.750
          --------------------

  ----- ALPHA SET ----- 

          ------------
          EIGENVECTORS
          ------------

                      1          2          3          4          5
                  -11.0551    -0.7925    -0.3918    -0.3918    -0.3918
                     A          A          A          A          A   
    1  C  1  S    0.563449  -0.103622  -0.000000  -0.000000  -0.000000
    2  C  1  S    0.466076  -0.167954  -0.000000  -0.000000  -0.000000
    3  C  1  X    0.000000  -0.000000   0.103821   0.011003   0.161484
    4  C  1  Y    0.000000  -0.000000  -0.043840   0.186589   0.015472
    5  C  1  Z    0.000000  -0.000001   0.155808   0.045169  -0.103250
    6  C  1  S    0.004950   0.435981   0.000001   0.000001   0.000000
    7  C  1  X   -0.000000  -0.000001   0.155588   0.016490   0.242004
    8  C  1  Y   -0.000000  -0.000000  -0.065700   0.279627   0.023186
    9  C  1  Z   -0.000000  -0.000001   0.233497   0.067691  -0.154732
   10  C  1  S    0.001630   0.342217   0.000001   0.000001   0.000000
   11  C  1  X    0.000000  -0.000000   0.120836   0.012807   0.187949
   12  C  1  Y    0.000000  -0.000000  -0.051025   0.217169   0.018007
   13  C  1  Z    0.000000  -0.000000   0.181343   0.052572  -0.120171
   14  C  1  S   -0.000169  -0.019411   0.000000  -0.000000  -0.000000
   15  C  1  X   -0.000000   0.000000  -0.016613  -0.001761  -0.025840
   16  C  1  Y   -0.000000   0.000000   0.007015  -0.029857  -0.002476
   17  C  1  Z   -0.000000   0.000000  -0.024931  -0.007228   0.016521
   18  C  1 XX   -0.000787   0.017845   0.005549  -0.014839  -0.012107
   19  C  1 YY   -0.000787   0.017845  -0.025262   0.009759  -0.003150
   20  C  1 ZZ   -0.000787   0.017845   0.019713   0.005080   0.015258
   21  C  1 XY   -0.000000  -0.000000   0.017784  -0.011758  -0.033510
   22  C  1 XZ   -0.000000   0.000000   0.020143   0.035699  -0.005054
   23  C  1 YZ   -0.000000  -0.000000   0.021899  -0.016324   0.022330
   24  C  1 XXX  -0.000053  -0.002632   0.007983   0.002368   0.014709
   25  C  1 YYY   0.000098   0.004914  -0.006210   0.016734   0.001517
   26  C  1 ZZZ   0.000059   0.002945   0.014460   0.005819  -0.008232
   27  C  1 XXY  -0.000147  -0.007325  -0.000757   0.009600   0.002486
   28  C  1 XXZ   0.000066   0.003307   0.007443   0.002592  -0.006356
   29  C  1 YYX  -0.000139  -0.006924   0.005189  -0.001018   0.008269
   30  C  1 YYZ  -0.000145  -0.007258   0.007413  -0.000468  -0.005299
   31  C  1 ZZX   0.000209   0.010454   0.006926   0.000260   0.007500
   32  C  1 ZZY   0.000015   0.000732  -0.000550   0.008973  -0.001120
   33  C  1 XYZ   0.000261   0.013049  -0.000361  -0.000708   0.000702
   34  H  2  S    0.000305   0.080559  -0.011856  -0.091259  -0.145344
   35  H  2  S   -0.000036   0.074961  -0.016428  -0.126451  -0.201393
   36  H  2  S   -0.000202   0.002319  -0.007880  -0.060658  -0.096608
   37  H  2  S    0.000070   0.006536  -0.005808  -0.044706  -0.071201
   38  H  3  S    0.000305   0.080559  -0.020031  -0.104540   0.135143
   39  H  3  S   -0.000036   0.074961  -0.027756  -0.144854   0.187259
   40  H  3  S   -0.000202   0.002319  -0.013314  -0.069486   0.089827
   41  H  3  S    0.000070   0.006536  -0.009813  -0.051212   0.066204
   42  H  4  S    0.000305   0.080558   0.154522   0.075177   0.008063
   43  H  4  S   -0.000036   0.074960   0.214111   0.104167   0.011173
   44  H  4  S   -0.000202   0.002319   0.102708   0.049969   0.005360
   45  H  4  S    0.000070   0.006536   0.075697   0.036827   0.003950
   46  H  5  S    0.000305   0.080559  -0.122635   0.120622   0.002137
   47  H  5  S   -0.000036   0.074961  -0.169926   0.167138   0.002961
   48  H  5  S   -0.000202   0.002319  -0.081513   0.080176   0.001421
   49  H  5  S    0.000070   0.006536  -0.060076   0.059090   0.001047

                      6          7          8          9         10
                    0.0415     0.1744     0.1744     0.1744     0.2770
                     A          A          A          A          A   
    1  C  1  S   -0.019448   0.000000   0.000000  -0.000000  -0.000000
    2  C  1  S   -0.030902   0.000000   0.000000  -0.000000  -0.000000
    3  C  1  X   -0.000000  -0.015643   0.001501   0.023524  -0.018915
    4  C  1  Y   -0.000000  -0.001202  -0.028246   0.001003  -0.008112
    5  C  1  Z   -0.000000  -0.023541   0.000445  -0.015683   0.011759
    6  C  1  S    0.114597  -0.000000  -0.000000   0.000000   0.000000
    7  C  1  X    0.000000  -0.061485   0.005899   0.092460   0.012232
    8  C  1  Y    0.000000  -0.004724  -0.111023   0.003942   0.005246
    9  C  1  Z    0.000000  -0.092528   0.001748  -0.061641  -0.007604
   10  C  1  S    0.143077  -0.000000   0.000000   0.000000  -0.000001
   11  C  1  X   -0.000000   0.083761  -0.008037  -0.125958  -0.153197
   12  C  1  Y   -0.000000   0.006435   0.151247  -0.005371  -0.065696
   13  C  1  Z   -0.000001   0.126050  -0.002381   0.083974   0.095235
   14  C  1  S    6.064986   0.000007   0.000001   0.000003  -0.000004
   15  C  1  X   -0.000008  -0.709445   0.068068   1.066846   3.025196
   16  C  1  Y   -0.000006  -0.054504  -1.281040   0.045488   1.297319
   17  C  1  Z   -0.000009  -1.067630   0.020169  -0.711246  -1.880609
   18  C  1 XX    0.012020  -0.000266   0.003909  -0.002738   0.013737
   19  C  1 YY    0.012020   0.005220  -0.003847  -0.000817  -0.000654
   20  C  1 ZZ    0.012020  -0.004955  -0.000062   0.003555  -0.013083
   21  C  1 XY   -0.000000  -0.003181   0.004214  -0.007923   0.031476
   22  C  1 XZ   -0.000000  -0.006921  -0.006881  -0.001663  -0.003006
   23  C  1 YZ   -0.000000  -0.004118   0.004940   0.005491  -0.014055
   24  C  1 XXX  -0.000361   0.002399  -0.001108  -0.002773  -0.007713
   25  C  1 YYY   0.000674   0.001341   0.003105  -0.000042  -0.003236
   26  C  1 ZZZ   0.000404   0.002343  -0.000935   0.002422   0.001506
   27  C  1 XXY  -0.001004  -0.000791   0.000531   0.000901  -0.005398
   28  C  1 XXZ   0.000453   0.000567  -0.000205  -0.000378   0.005402
   29  C  1 YYX  -0.000949   0.000507   0.000791  -0.000272  -0.005263
   30  C  1 YYZ  -0.000995   0.001018   0.001370   0.000279   0.005003
   31  C  1 ZZX   0.001434  -0.000583   0.000394  -0.000732  -0.004376
   32  C  1 ZZY   0.000100  -0.000767   0.000977  -0.001047   0.001167
   33  C  1 XYZ   0.001789   0.000285   0.000301   0.000402  -0.000916
   34  H  2  S   -0.000553   0.005963   0.013937  -0.021534   0.044864
   35  H  2  S    0.027088  -0.011032  -0.025785   0.039841  -0.116358
   36  H  2  S   -0.386503   0.150659   0.352109  -0.544058   1.071620
   37  H  2  S   -1.552028  -1.084468  -2.534502   3.916157   5.020057
   38  H  3  S   -0.000553   0.006814   0.013658   0.021461  -0.028550
   39  H  3  S    0.027088  -0.012605  -0.025268  -0.039705   0.074044
   40  H  3  S   -0.386503   0.172139   0.345050   0.542205  -0.681928
   41  H  3  S   -1.552023  -1.239082  -2.483696  -3.902820  -3.194528
   42  H  4  S   -0.000553  -0.025896  -0.004763   0.000481  -0.005442
   43  H  4  S    0.027087   0.047911   0.008813  -0.000890   0.014115
   44  H  4  S   -0.386499  -0.654251  -0.120347   0.012155  -0.129997
   45  H  4  S   -1.551998   4.709338   0.866261  -0.087495  -0.608977
   46  H  5  S   -0.000553   0.013119  -0.022831  -0.000408  -0.010872
   47  H  5  S    0.027088  -0.024271   0.042240   0.000754   0.028198
   48  H  5  S   -0.386503   0.331446  -0.576814  -0.010302  -0.259693
   49  H  5  S   -1.552022  -2.385787   4.151939   0.074155  -1.216549

                     11         12         13         14         15
                    0.2770     0.2770     0.3090     0.4478     0.4478
                     A          A          A          A          A   
    1  C  1  S    0.000000   0.000000   0.035991  -0.000001   0.000000
    2  C  1  S    0.000000   0.000000   0.063996  -0.000001   0.000000
    3  C  1  X   -0.006594   0.012672  -0.000000   0.082304   0.111506
    4  C  1  Y    0.022266  -0.000522  -0.000000   0.038000  -0.112347
    5  C  1  Z    0.004753   0.020025  -0.000000   0.134773  -0.036419
    6  C  1  S   -0.000000  -0.000001  -0.138492   0.000001  -0.000000
    7  C  1  X    0.004264  -0.008195   0.000001   0.030469   0.041279
    8  C  1  Y   -0.014399   0.000337   0.000001   0.014067  -0.041590
    9  C  1  Z   -0.003074  -0.012950   0.000001   0.049892  -0.013482
   10  C  1  S    0.000001   0.000002  -0.535929   0.000036  -0.000002
   11  C  1  X   -0.053405   0.102632  -0.000004   0.792942   1.074273
   12  C  1  Y    0.180335  -0.004225  -0.000002   0.366099  -1.082376
   13  C  1  Z    0.038493   0.162182  -0.000005   1.298433  -0.350867
   14  C  1  S    0.000027   0.000085  15.015667   0.000132   0.000003
   15  C  1  X    1.054602  -2.026717  -0.000011  -0.488293  -0.661541
   16  C  1  Y   -3.561118   0.083427  -0.000010  -0.225446   0.666530
   17  C  1  Z   -0.760137  -3.202675  -0.000012  -0.799575   0.216067
   18  C  1 XX   -0.010326   0.002105   0.002371   0.000325  -0.000816
   19  C  1 YY    0.013143  -0.019680   0.002371   0.003427   0.003298
   20  C  1 ZZ   -0.002818   0.017574   0.002371  -0.003754  -0.002482
   21  C  1 XY   -0.005011   0.013172  -0.000000  -0.002005   0.001374
   22  C  1 XZ    0.026856   0.023574  -0.000000  -0.006439   0.003910
   23  C  1 YZ   -0.022352   0.015531  -0.000000  -0.002297  -0.006251
   24  C  1 XXX   0.000431   0.002569   0.002453   0.018791   0.025285
   25  C  1 YYY   0.008480  -0.004191  -0.004580   0.008061  -0.026161
   26  C  1 ZZZ   0.003976   0.008443  -0.002745   0.031515  -0.008534
   27  C  1 XXY   0.005783   0.002450   0.006827   0.004560  -0.011557
   28  C  1 XXZ   0.002684   0.005520  -0.003082   0.014396  -0.004291
   29  C  1 YYX  -0.004724   0.003202   0.006453   0.008579   0.012371
   30  C  1 YYZ  -0.002997   0.004312   0.006764   0.013908  -0.003334
   31  C  1 ZZX  -0.002822   0.006742  -0.009743   0.009316   0.012106
   32  C  1 ZZY   0.006367   0.002622  -0.000682   0.004527  -0.012185
   33  C  1 XYZ  -0.001404  -0.000907  -0.012162  -0.000223   0.000281
   34  H  2  S   -0.012362  -0.008133  -0.014769   0.011112   0.007509
   35  H  2  S    0.032063   0.021095   0.192728   0.000412   0.000278
   36  H  2  S   -0.295289  -0.194277  -1.472039   0.898614   0.607215
   37  H  2  S   -1.383282  -0.910066  -2.710480  -0.951496  -0.642916
   38  H  3  S   -0.035813  -0.011581  -0.014768   0.014046  -0.032604
   39  H  3  S    0.092883   0.030039   0.192728   0.000521  -0.001206
   40  H  3  S   -0.855427  -0.276643  -1.472036   1.135858  -2.636542
   41  H  3  S   -4.007277  -1.295911  -2.710474  -1.202687   2.791552
   42  H  4  S    0.010306   0.045782  -0.014769  -0.037029  -0.001568
   43  H  4  S   -0.026729  -0.118736   0.192728  -0.001369  -0.000058
   44  H  4  S    0.246164   1.093527  -1.472028  -2.994361  -0.126811
   45  H  4  S    1.153172   5.122663  -2.710459   3.170345   0.134263
   46  H  5  S    0.037869  -0.026067  -0.014769   0.011868   0.026663
   47  H  5  S   -0.098216   0.067608   0.192728   0.000440   0.000986
   48  H  5  S    0.904539  -0.622641  -1.472036   0.959758   2.156139
   49  H  5  S    4.237368  -2.916750  -2.710473  -1.016230  -2.282902

                     16         17         18         19         20
                    0.4478     0.5133     0.6999     0.6999     0.6999
                     A          A          A          A          A   
    1  C  1  S    0.000000  -0.048915   0.000000   0.000000   0.000000
    2  C  1  S    0.000000  -0.098944   0.000000  -0.000000   0.000000
    3  C  1  X   -0.084700  -0.000001  -0.008656   0.000795  -0.005764
    4  C  1  Y   -0.110977  -0.000001  -0.000655  -0.010399  -0.000450
    5  C  1  Z    0.083016  -0.000001   0.005781   0.000011  -0.008681
    6  C  1  S   -0.000000  -0.008829  -0.000000  -0.000000  -0.000001
    7  C  1  X   -0.031356   0.000000   0.064397  -0.005913   0.042880
    8  C  1  Y   -0.041083   0.000000   0.004875   0.077367   0.003346
    9  C  1  Z    0.030732   0.000000  -0.043011  -0.000083   0.064581
   10  C  1  S   -0.000007   4.418538   0.000001   0.000007   0.000027
   11  C  1  X   -0.816020  -0.000017  -1.271190   0.116719  -0.846456
   12  C  1  Y   -1.069178  -0.000011  -0.096241  -1.527223  -0.066056
   13  C  1  Z    0.799798  -0.000023   0.849024   0.001639  -1.274834
   14  C  1  S   -0.000020  14.736481   0.000004   0.000029   0.000073
   15  C  1  X    0.502510  -0.000023   1.462247  -0.134262   0.973679
   16  C  1  Y    0.658403  -0.000019   0.110706   1.756761   0.075985
   17  C  1  Z   -0.492518  -0.000033  -0.976630  -0.001884   1.466441
   18  C  1 XX   -0.003663  -0.066563  -0.006309  -0.008500   0.000586
   19  C  1 YY    0.001976  -0.066563  -0.001581   0.008586  -0.011573
   20  C  1 ZZ    0.001688  -0.066563   0.007889  -0.000086   0.010987
   21  C  1 XY   -0.007099  -0.000000  -0.017820  -0.008866   0.007056
   22  C  1 XZ    0.002033  -0.000000  -0.003264   0.015347   0.015363
   23  C  1 YZ    0.000278  -0.000000   0.011878  -0.011294   0.009122
   24  C  1 XXX  -0.020005  -0.001327  -0.014367  -0.002564  -0.007191
   25  C  1 YYY  -0.025862   0.002477  -0.001423  -0.018066   0.004252
   26  C  1 ZZZ   0.018574   0.001484   0.007041  -0.003586  -0.016104
   27  C  1 XXY  -0.012265  -0.003692  -0.004563  -0.011538  -0.003890
   28  C  1 XXZ   0.009118   0.001667   0.009249  -0.000883  -0.009203
   29  C  1 YYX  -0.008822  -0.003490  -0.010307   0.004315  -0.005565
   30  C  1 YYZ   0.009441  -0.003658   0.006699   0.005743  -0.007320
   31  C  1 ZZX  -0.008698   0.005269  -0.008438   0.002615  -0.010103
   32  C  1 ZZY  -0.011161   0.000369   0.003593  -0.009903  -0.003790
   33  C  1 XYZ  -0.000082   0.006577  -0.001640   0.001299   0.001188
   34  H  2  S   -0.034564  -0.041331  -0.057619  -0.035073  -0.015686
   35  H  2  S   -0.001278   0.045034  -1.308270  -0.796362  -0.356177
   36  H  2  S   -2.795085  -3.573710   1.253621   0.763089   0.341278
   37  H  2  S    2.959424  -1.981379   1.273417   0.775145   0.346681
   38  H  3  S    0.010689  -0.041331   0.055425  -0.037437  -0.017960
   39  H  3  S    0.000395   0.045034   1.258463  -0.850047  -0.407816
   40  H  3  S    0.864411  -3.573706  -1.205897   0.814533   0.390760
   41  H  3  S   -0.915224  -1.981380  -1.224938   0.827400   0.396945
   42  H  4  S    0.001011  -0.041331   0.001630   0.012442   0.068107
   43  H  4  S    0.000037   0.045031   0.037021   0.282500   1.546437
   44  H  4  S    0.081722  -3.573623  -0.035476  -0.270707  -1.481855
   45  H  4  S   -0.086521  -1.981349  -0.036035  -0.274974  -1.505253
   46  H  5  S    0.022865  -0.041331   0.000563   0.060069  -0.034459
   47  H  5  S    0.000845   0.045034   0.012786   1.363913  -0.782438
   48  H  5  S    1.848973  -3.573698  -0.012253  -1.306945   0.749729
   49  H  5  S   -1.957669  -1.981374  -0.012446  -1.327586   0.761593

                     21         22         23         24         25
                    1.0101     1.0279     1.0279     1.0279     1.1079
                     A          A          A          A          A   
    1  C  1  S    0.011876  -0.000000  -0.000000   0.000000   0.112259
    2  C  1  S    0.033068   0.000001   0.000000   0.000000   0.135881
    3  C  1  X   -0.000012   0.128601   0.220214  -0.005803   0.000002
    4  C  1  Y   -0.000007   0.079864  -0.040344   0.238872   0.000001
    5  C  1  Z   -0.000016   0.205303  -0.122246  -0.089288   0.000002
    6  C  1  S    0.386519   0.000054   0.000004   0.000000  -2.010333
    7  C  1  X   -0.000053   0.582156   0.996874  -0.026270   0.000008
    8  C  1  Y   -0.000030   0.361532  -0.182633   1.081339   0.000004
    9  C  1  Z   -0.000073   0.929377  -0.553391  -0.404191   0.000010
   10  C  1  S   -2.901873  -0.000308  -0.000022  -0.000001   6.355990
   11  C  1  X    0.000108  -1.026979  -1.758577   0.046342  -0.000019
   12  C  1  Y    0.000064  -0.637777   0.322181  -1.907580  -0.000010
   13  C  1  Z    0.000150  -1.639508   0.976232   0.713030  -0.000024
   14  C  1  S    8.269332   0.000702   0.000038   0.000017   3.878813
   15  C  1  X   -0.000064   0.502178   0.859922  -0.022660  -0.000006
   16  C  1  Y   -0.000040   0.311865  -0.157543   0.932782  -0.000006
   17  C  1  Z   -0.000089   0.801697  -0.477366  -0.348662  -0.000009
   18  C  1 XX    0.062338   0.002179   0.005340   0.012197  -0.388864
   19  C  1 YY    0.062337   0.011178   0.005444  -0.013634  -0.388863
   20  C  1 ZZ    0.062339  -0.013329  -0.010782   0.001438  -0.388864
   21  C  1 XY    0.000000  -0.005741   0.018889   0.018229  -0.000000
   22  C  1 XZ    0.000002  -0.024169   0.006996  -0.012153  -0.000000
   23  C  1 YZ    0.000001  -0.007123  -0.018727   0.012971  -0.000000
   24  C  1 XXX   0.004553   0.006010   0.010220  -0.000549  -0.000678
   25  C  1 YYY  -0.008503   0.003984  -0.001846   0.010870   0.001267
   26  C  1 ZZZ  -0.005095   0.009293  -0.005755  -0.004349   0.000759
   27  C  1 XXY   0.012673   0.001355  -0.001054   0.004688  -0.001887
   28  C  1 XXZ  -0.005722   0.004038  -0.002202  -0.001771   0.000852
   29  C  1 YYX   0.011979   0.002640   0.004230   0.000073  -0.001784
   30  C  1 YYZ   0.012557   0.004280  -0.002454  -0.001434  -0.001870
   31  C  1 ZZX  -0.018088   0.002317   0.004353   0.000076   0.002694
   32  C  1 ZZY  -0.001266   0.001385  -0.000554   0.004913   0.000189
   33  C  1 XYZ  -0.022578   0.000098  -0.000119   0.000034   0.003363
   34  H  2  S    0.057202   0.021235   0.043269   0.037000   0.043844
   35  H  2  S    1.461796   0.236950   0.482658   0.412726   0.177244
   36  H  2  S   -1.479055  -0.798563  -1.627249  -1.391491  -2.204510
   37  H  2  S   -1.223764   0.796240   1.622948   1.387816  -0.296608
   38  H  3  S    0.057202   0.024520  -0.053476   0.015208   0.043844
   39  H  3  S    1.461798   0.273583  -0.596500   0.169645   0.177243
   40  H  3  S   -1.479064  -0.922071   2.011102  -0.571949  -2.204506
   41  H  3  S   -1.223754   0.919422  -2.005812   0.570434  -0.296610
   42  H  4  S    0.057209  -0.060448  -0.003222   0.005197   0.043843
   43  H  4  S    1.461857  -0.674207  -0.035941   0.057969   0.177231
   44  H  4  S   -1.479326   2.273383   0.121193  -0.195438  -2.204452
   45  H  4  S   -1.223441  -2.267602  -0.120884   0.194914  -0.296608
   46  H  5  S    0.057203   0.014711   0.013430  -0.057405   0.043844
   47  H  5  S    1.461801   0.164172   0.149812  -0.640332   0.177244
   48  H  5  S   -1.479085  -0.553191  -0.505067   2.158863  -2.204505
   49  H  5  S   -1.223725   0.551513   0.503724  -2.153175  -0.296604

                     26         27         28         29         30
                    1.6741     1.6741     2.0214     2.0214     2.0214
                     A          A          A          A          A   
    1  C  1  S    0.000000  -0.000000  -0.000000   0.000000   0.000000
    2  C  1  S    0.000000  -0.000000  -0.000000   0.000000   0.000000
    3  C  1  X   -0.000000  -0.000000  -0.006592   0.035898   0.012035
    4  C  1  Y   -0.000000   0.000000  -0.030609   0.002137  -0.023141
    5  C  1  Z    0.000000  -0.000000  -0.022285  -0.013554   0.028225
    6  C  1  S   -0.000000   0.000001  -0.000000  -0.000000  -0.000001
    7  C  1  X   -0.000000  -0.000000  -0.005742   0.031272   0.010483
    8  C  1  Y   -0.000000   0.000000  -0.026664   0.001861  -0.020159
    9  C  1  Z    0.000000  -0.000000  -0.019412  -0.011808   0.024587
   10  C  1  S    0.000001  -0.000003   0.000010  -0.000004  -0.000009
   11  C  1  X    0.000000  -0.000000  -0.152515   0.830526   0.278426
   12  C  1  Y    0.000000  -0.000000  -0.708155   0.049437  -0.535375
   13  C  1  Z    0.000000  -0.000000  -0.515571  -0.313583   0.653004
   14  C  1  S    0.000000  -0.000001   0.000018  -0.000004  -0.000005
   15  C  1  X    0.000000   0.000000   0.121701  -0.662729  -0.222174
   16  C  1  Y    0.000000  -0.000000   0.565081  -0.039448   0.427210
   17  C  1  Z   -0.000000   0.000000   0.411406   0.250228  -0.521072
   18  C  1 XX   -0.718693  -0.524365   0.265279  -0.285794   0.336353
   19  C  1 YY   -0.053033   0.779297   0.008502  -0.207727  -0.672761
   20  C  1 ZZ    0.771726  -0.254932  -0.273782   0.493521   0.336409
   21  C  1 XY    0.257520   0.326077   0.014753  -0.759544   0.689245
   22  C  1 XZ   -0.315661   0.075799  -1.058769   0.002042   0.129296
   23  C  1 YZ   -0.301296   0.506386   0.231506   0.670249   0.572150
   24  C  1 XXX   0.000000   0.000000  -0.020722   0.080700   0.012954
   25  C  1 YYY   0.000000  -0.000000  -0.061930   0.002090  -0.068605
   26  C  1 ZZZ  -0.000001   0.000000  -0.063712  -0.021402   0.060048
   27  C  1 XXY  -0.000000   0.000000  -0.047768   0.018697  -0.025421
   28  C  1 XXZ   0.000000   0.000000  -0.033562  -0.028757   0.037694
   29  C  1 YYX  -0.000000  -0.000000   0.002374   0.051471   0.021461
   30  C  1 YYZ   0.000000  -0.000001  -0.010281  -0.021187   0.045537
   31  C  1 ZZX  -0.000000  -0.000000  -0.012828   0.048582   0.030997
   32  C  1 ZZY   0.000000  -0.000000  -0.046772  -0.009100  -0.016825
   33  C  1 XYZ  -0.000000  -0.000000   0.006830   0.004725  -0.001373
   34  H  2  S    0.000000  -0.000000   0.152374  -0.305027   0.106730
   35  H  2  S   -0.000001   0.000001  -0.794560   1.590569  -0.556544
   36  H  2  S    0.000000   0.000000   0.412983  -0.826732   0.289280
   37  H  2  S   -0.000000   0.000000   0.219524  -0.439448   0.153764
   38  H  3  S   -0.000000  -0.000000   0.244314   0.260682  -0.002462
   39  H  3  S    0.000000   0.000001  -1.273983  -1.359330   0.012841
   40  H  3  S   -0.000001   0.000000   0.662174   0.706544  -0.006670
   41  H  3  S   -0.000000   0.000000   0.351981   0.375560  -0.003548
   42  H  4  S    0.000000  -0.000000  -0.263964   0.086288   0.224785
   43  H  4  S   -0.000000   0.000001   1.376442  -0.449948  -1.172144
   44  H  4  S   -0.000000   0.000001  -0.715438   0.233871   0.609247
   45  H  4  S   -0.000000   0.000000  -0.380295   0.124315   0.323851
   46  H  5  S   -0.000000   0.000000  -0.132728  -0.041942  -0.329052
   47  H  5  S   -0.000000   0.000000   0.692107   0.218708   1.715850
   48  H  5  S   -0.000000   0.000001  -0.359745  -0.113676  -0.891844
   49  H  5  S   -0.000000   0.000000  -0.191218  -0.060426  -0.474066

                     31         32         33         34         35
                    2.6663     2.8062     2.8062     2.8062     3.1850
                     A          A          A          A          A   
    1  C  1  S   -0.041937   0.000000   0.000000   0.000000  -0.000000
    2  C  1  S   -0.128879   0.000001   0.000000   0.000000  -0.000000
    3  C  1  X    0.000001   0.187987   0.290616   0.064007  -0.000001
    4  C  1  Y    0.000000   0.080816  -0.122721   0.319846   0.000003
    5  C  1  Z    0.000002   0.286398  -0.156125  -0.132269  -0.000001
    6  C  1  S    0.202379  -0.000002  -0.000000  -0.000000   0.000000
    7  C  1  X   -0.000000  -0.097697  -0.151032  -0.033264   0.000000
    8  C  1  Y    0.000000  -0.042000   0.063778  -0.166223  -0.000001
    9  C  1  Z    0.000000  -0.148841   0.081138   0.068740   0.000000
   10  C  1  S   -0.288777   0.000004   0.000000   0.000000   0.000000
   11  C  1  X    0.000006   0.184716   0.285560   0.062894  -0.000001
   12  C  1  Y    0.000004   0.079411  -0.120586   0.314282   0.000003
   13  C  1  Z    0.000008   0.281415  -0.153409  -0.129967  -0.000001
   14  C  1  S    5.764776  -0.000052  -0.000001  -0.000005  -0.000000
   15  C  1  X   -0.000011   0.030367   0.046942   0.010338   0.000000
   16  C  1  Y   -0.000008   0.013054  -0.019823   0.051664  -0.000001
   17  C  1  Z   -0.000015   0.046264  -0.025218  -0.021365   0.000000
   18  C  1 XX   -0.293726  -0.016443  -0.034289  -0.160188  -0.000000
   19  C  1 YY   -0.293727  -0.151715  -0.089951   0.139904   0.000001
   20  C  1 ZZ   -0.293724   0.168164   0.124241   0.020285  -0.000000
   21  C  1 XY    0.000000   0.079991  -0.187259  -0.257073  -0.000000
   22  C  1 XZ    0.000003   0.278665  -0.126629   0.150345   0.000000
   23  C  1 YZ    0.000001   0.107520   0.249849  -0.104278  -0.000001
   24  C  1 XXX   0.061114   0.110524   0.122868  -0.258010   0.234572
   25  C  1 YYY  -0.114113   0.319279   0.023671  -0.109673  -0.576144
   26  C  1 ZZZ  -0.068382  -0.152723  -0.067312  -0.268785  -0.001678
   27  C  1 XXY   0.170094  -0.282433  -0.161100  -0.297639   0.192570
   28  C  1 XXZ  -0.076793  -0.187927   0.311194   0.115709  -0.217210
   29  C  1 YYX   0.160777  -0.038129  -0.341967   0.129599   0.172300
   30  C  1 YYZ   0.168535   0.017551  -0.016312   0.418217   0.219462
   31  C  1 ZZX  -0.242772  -0.356479  -0.203677   0.132688  -0.487011
   32  C  1 ZZY  -0.016996  -0.251820   0.290146   0.025681   0.580404
   33  C  1 XYZ  -0.303028   0.093499  -0.129508   0.018118   0.595347
   34  H  2  S   -0.590631   0.291186   0.509542   0.684595   0.000001
   35  H  2  S    1.539330  -0.402317  -0.703997  -0.945855  -0.000001
   36  H  2  S   -1.529286   0.396494   0.693810   0.932169   0.000001
   37  H  2  S   -0.773535  -0.137839  -0.241222  -0.324093  -0.000001
   38  H  3  S   -0.590631   0.316251  -0.839170   0.094186   0.000001
   39  H  3  S    1.539330  -0.436948   1.159419  -0.130130  -0.000001
   40  H  3  S   -1.529287   0.430624  -1.142642   0.128247   0.000002
   41  H  3  S   -0.773534  -0.149705   0.397272  -0.044587  -0.000001
   42  H  4  S   -0.590639  -0.901559  -0.016777   0.000051   0.000001
   43  H  4  S    1.539333   1.245615   0.023180  -0.000071  -0.000001
   44  H  4  S   -1.529295  -1.227586  -0.022844   0.000070   0.000001
   45  H  4  S   -0.773497   0.426811   0.007942  -0.000022  -0.000001
   46  H  5  S   -0.590631   0.294140   0.346406  -0.778831  -0.000002
   47  H  5  S    1.539328  -0.406398  -0.478604   1.076052   0.000002
   48  H  5  S   -1.529285   0.400517   0.471678  -1.060481  -0.000004
   49  H  5  S   -0.773530  -0.139237  -0.163992   0.368706   0.000003

                     36         37         38         39         40
                    3.1850     3.1850     3.2834     3.2834     3.2834
                     A          A          A          A          A   
    1  C  1  S   -0.000000  -0.000000  -0.000000   0.000000  -0.000000
    2  C  1  S   -0.000000  -0.000000  -0.000001   0.000000  -0.000000
    3  C  1  X    0.000002   0.000000   0.098707  -0.814121  -0.083797
    4  C  1  Y    0.000000  -0.000000   0.098754  -0.071939   0.815249
    5  C  1  Z   -0.000002  -0.000000   0.812441   0.107658  -0.088914
    6  C  1  S    0.000000   0.000000   0.000003  -0.000002   0.000001
    7  C  1  X   -0.000001  -0.000000  -0.020564   0.169610   0.017458
    8  C  1  Y   -0.000000  -0.000000  -0.020574   0.014987  -0.169845
    9  C  1  Z    0.000000   0.000000  -0.169259  -0.022429   0.018524
   10  C  1  S    0.000000   0.000000  -0.000002   0.000001  -0.000001
   11  C  1  X    0.000002   0.000001   0.105075  -0.866632  -0.089202
   12  C  1  Y    0.000000  -0.000000   0.105123  -0.076579   0.867832
   13  C  1  Z   -0.000002  -0.000000   0.864844   0.114601  -0.094649
   14  C  1  S    0.000000   0.000000  -0.000021   0.000011  -0.000005
   15  C  1  X   -0.000001  -0.000000  -0.055115   0.454577   0.046789
   16  C  1  Y   -0.000000   0.000000  -0.055141   0.040168  -0.455206
   17  C  1  Z    0.000001   0.000000  -0.453639  -0.060112   0.049646
   18  C  1 XX   -0.000000  -0.000000   0.002528   0.005887  -0.009351
   19  C  1 YY   -0.000000  -0.000000  -0.009288   0.006863   0.010338
   20  C  1 ZZ    0.000000   0.000000   0.006756  -0.012747  -0.000988
   21  C  1 XY   -0.000001  -0.000000   0.014062   0.013887  -0.010916
   22  C  1 XZ   -0.000000  -0.000000   0.017971  -0.004304   0.014481
   23  C  1 YZ    0.000000   0.000000   0.001797  -0.015554  -0.012532
   24  C  1 XXX   0.192130  -0.355724  -0.237872   0.950387   0.410036
   25  C  1 YYY  -0.028118   0.087126  -0.458128   0.224779  -0.769796
   26  C  1 ZZZ  -0.609518  -0.001561  -0.809341  -0.355952   0.368621
   27  C  1 XXY   0.592417  -0.192245   0.092843  -0.376796  -0.111218
   28  C  1 XXZ   0.646586   0.566344  -0.019751   0.199838   0.074921
   29  C  1 YYX  -0.149773   0.796499  -0.122605   0.077448  -0.247729
   30  C  1 YYZ   0.171171  -0.564249  -0.294691   0.092168  -0.416229
   31  C  1 ZZX  -0.108000  -0.319245   0.271617   0.050656  -0.157963
   32  C  1 ZZY  -0.554692   0.075353   0.351592   0.199215  -0.261119
   33  C  1 XYZ   0.276116   0.030909  -0.149895  -0.072760  -0.086340
   34  H  2  S    0.000001   0.000000  -0.010401  -0.081902   0.049110
   35  H  2  S   -0.000002  -0.000000   0.022771   0.179315  -0.107520
   36  H  2  S    0.000003   0.000001  -0.070755  -0.557179   0.334093
   37  H  2  S   -0.000002  -0.000001   0.093656   0.737447  -0.442185
   38  H  3  S   -0.000001  -0.000000   0.061669   0.057399   0.046153
   39  H  3  S    0.000002   0.000000  -0.135016  -0.125669  -0.101048
   40  H  3  S   -0.000003  -0.000001   0.419533   0.390486   0.313983
   41  H  3  S    0.000002   0.000001  -0.555263  -0.516830  -0.415569
   42  H  4  S    0.000000   0.000000  -0.085123   0.043881  -0.007479
   43  H  4  S   -0.000000  -0.000000   0.186365  -0.096071   0.016375
   44  H  4  S    0.000000   0.000000  -0.579095   0.298523  -0.050882
   45  H  4  S   -0.000000  -0.000000   0.766469  -0.395115   0.067348
   46  H  5  S   -0.000000  -0.000000   0.033858  -0.019380  -0.087783
   47  H  5  S    0.000000   0.000000  -0.074127   0.042429   0.192192
   48  H  5  S   -0.000000   0.000000   0.230335  -0.131840  -0.597190
   49  H  5  S    0.000000  -0.000000  -0.304850   0.174492   0.790409

                     41         42         43         44         45
                    3.5324     4.1320     4.1320     4.1320     4.7797
                     A          A          A          A          A   
    1  C  1  S   -0.158409   0.000000   0.000000  -0.000000   0.054918
    2  C  1  S   -0.612377   0.000001   0.000001  -0.000000   0.224046
    3  C  1  X    0.000000   0.207597  -0.175553  -0.268703   0.000001
    4  C  1  Y    0.000000   0.066664   0.336611  -0.168417   0.000000
    5  C  1  Z    0.000001   0.313972   0.044604   0.213424   0.000001
    6  C  1  S    1.624645  -0.000000  -0.000002   0.000001  -1.033396
    7  C  1  X   -0.000001   0.175785  -0.148654  -0.227531   0.000001
    8  C  1  Y   -0.000001   0.056448   0.285035  -0.142612  -0.000000
    9  C  1  Z   -0.000001   0.265860   0.037770   0.180722   0.000001
   10  C  1  S    3.834107  -0.000010  -0.000003   0.000002  -0.511526
   11  C  1  X   -0.000004   0.121480  -0.102727  -0.157235   0.000001
   12  C  1  Y   -0.000003   0.039009   0.196973  -0.098552   0.000001
   13  C  1  Z   -0.000005   0.183727   0.026100   0.124888   0.000002
   14  C  1  S    0.605077  -0.000008   0.000003  -0.000000   1.829499
   15  C  1  X   -0.000004  -0.124729   0.105476   0.161442  -0.000003
   16  C  1  Y   -0.000003  -0.040053  -0.202243   0.101189  -0.000002
   17  C  1  Z   -0.000005  -0.188642  -0.026799  -0.128230  -0.000004
   18  C  1 XX   -1.521940   0.013123   0.121756  -0.207064   0.634542
   19  C  1 YY   -1.521940   0.234899  -0.223038   0.057279   0.634544
   20  C  1 ZZ   -1.521940  -0.248014   0.101286   0.149784   0.634542
   21  C  1 XY   -0.000000  -0.129641   0.044752  -0.459140  -0.000001
   22  C  1 XZ   -0.000000  -0.390919  -0.305462   0.046413   0.000000
   23  C  1 YZ   -0.000000  -0.173181   0.363782   0.137267  -0.000002
   24  C  1 XXX  -0.052187   0.010361  -0.247007   0.409047  -0.158354
   25  C  1 YYY   0.097452   0.450236  -0.422940   0.243800   0.295687
   26  C  1 ZZZ   0.058395  -0.505362  -0.259096   0.194757   0.177180
   27  C  1 XXY  -0.145257  -0.452088  -0.287550   0.594262  -0.440741
   28  C  1 XXZ   0.065578  -0.420309  -0.272006  -0.544128   0.198977
   29  C  1 YYX  -0.137298  -0.167076   0.601841   0.322565  -0.416597
   30  C  1 YYZ  -0.143922  -0.134298   0.444507  -0.555056  -0.436698
   31  C  1 ZZX   0.207316  -0.661827   0.418765   0.183551   0.629043
   32  C  1 ZZY   0.014512  -0.413681  -0.466533  -0.260157   0.044034
   33  C  1 XYZ   0.258776   0.140515   0.176996   0.112987   0.785185
   34  H  2  S   -0.014005  -0.363039  -0.135362   1.161457  -0.779823
   35  H  2  S   -0.014518   0.240751   0.089766  -0.770224   0.599211
   36  H  2  S   -0.832714  -0.115540  -0.043081   0.369656  -0.420236
   37  H  2  S    0.032958  -0.044004  -0.016407   0.140776  -0.258333
   38  H  3  S   -0.014004  -0.395630  -0.949203  -0.664525  -0.779822
   39  H  3  S   -0.014519   0.262364   0.629468   0.440682   0.599211
   40  H  3  S   -0.832714  -0.125913  -0.302102  -0.211498  -0.420236
   41  H  3  S    0.032958  -0.047954  -0.115050  -0.080544  -0.258333
   42  H  4  S   -0.014003   1.222740   0.046618  -0.042602  -0.779820
   43  H  4  S   -0.014518  -0.810870  -0.030915   0.028252   0.599212
   44  H  4  S   -0.832704   0.389163   0.014838  -0.013559  -0.420238
   45  H  4  S    0.032967   0.148211   0.005650  -0.005163  -0.258324
   46  H  5  S   -0.014004  -0.464070   1.037941  -0.454328  -0.779828
   47  H  5  S   -0.014518   0.307749  -0.688314   0.301289   0.599214
   48  H  5  S   -0.832714  -0.147694   0.330344  -0.144599  -0.420237
   49  H  5  S    0.032960  -0.056251   0.125806  -0.055068  -0.258332

                     46         47         48         49
                    9.6530     9.6530     9.6530    27.8501
                     A          A          A          A   
    1  C  1  S    0.000000  -0.000000  -0.000000  -2.115152
    2  C  1  S   -0.000000  -0.000000  -0.000000   2.569540
    3  C  1  X   -3.129935  -0.760685  -2.014113   0.000000
    4  C  1  Y    0.115588  -3.608146   1.183092   0.000000
    5  C  1  Z    2.149867  -0.913469  -2.995903   0.000001
    6  C  1  S   -0.000000  -0.000001  -0.000001  -1.095042
    7  C  1  X   12.983598   3.155473   8.354941  -0.000001
    8  C  1  Y   -0.479481  14.967312  -4.907703  -0.000001
    9  C  1  Z   -8.918079   3.789252  12.427603  -0.000002
   10  C  1  S    0.000000   0.000005   0.000006  -1.124944
   11  C  1  X   -1.780635  -0.432757  -1.145838   0.000001
   12  C  1  Y    0.065758  -2.052691   0.673067   0.000001
   13  C  1  Z    1.223070  -0.519677  -1.704384   0.000002
   14  C  1  S   -0.000000   0.000024   0.000027  -0.236610
   15  C  1  X    0.681842   0.165712   0.438765   0.000001
   16  C  1  Y   -0.025180   0.786018  -0.257731   0.000001
   17  C  1  Z   -0.468339   0.198995   0.652643   0.000002
   18  C  1 XX   -0.026538  -0.039996   0.017567   0.657405
   19  C  1 YY   -0.010468   0.018227  -0.066656   0.657405
   20  C  1 ZZ    0.037006   0.021767   0.049087   0.657405
   21  C  1 XY   -0.082159  -0.035804   0.048308  -0.000000
   22  C  1 XZ   -0.023772   0.093520   0.043557  -0.000000
   23  C  1 YZ    0.061302  -0.029949   0.059361  -0.000000
   24  C  1 XXX  -6.683875  -1.609232  -4.319043  -0.006961
   25  C  1 YYY   0.248599  -7.708316   2.499433   0.012999
   26  C  1 ZZZ   4.601394  -1.927927  -6.394559   0.007790
   27  C  1 XXY   0.129717  -3.417401   1.139758  -0.019375
   28  C  1 XXZ   2.025719  -0.865024  -2.847897   0.008747
   29  C  1 YYX  -2.966119  -0.740396  -1.909995  -0.018313
   30  C  1 YYZ   2.042633  -0.900072  -2.845107  -0.019197
   31  C  1 ZZX  -2.977247  -0.724426  -1.890446   0.027653
   32  C  1 ZZY   0.087402  -3.429686   1.143043   0.001936
   33  C  1 XYZ   0.009416  -0.007839  -0.003623   0.034516
   34  H  2  S   -0.040476  -0.032713  -0.001039  -0.054756
   35  H  2  S    0.444647   0.359367   0.011416   0.008662
   36  H  2  S   -1.002364  -0.810119  -0.025736   0.257161
   37  H  2  S    1.183208   0.956268   0.030366  -0.002241
   38  H  3  S    0.044307  -0.027104  -0.003433  -0.054756
   39  H  3  S   -0.486734   0.297749   0.037706   0.008662
   40  H  3  S    1.097240  -0.671213  -0.085000   0.257160
   41  H  3  S   -1.295202   0.792300   0.100323  -0.002241
   42  H  4  S   -0.000516   0.026830   0.044600  -0.054756
   43  H  4  S    0.005670  -0.294748  -0.489968   0.008662
   44  H  4  S   -0.012782   0.664449   1.104532   0.257157
   45  H  4  S    0.015088  -0.784336  -1.303818  -0.002245
   46  H  5  S   -0.003315   0.032985  -0.040132  -0.054756
   47  H  5  S    0.036417  -0.362358   0.440859   0.008662
   48  H  5  S   -0.082094   0.816859  -0.993824   0.257160
   49  H  5  S    0.096906  -0.964245   1.173113  -0.002242

  ----- BETA SET ----- 

          ------------
          EIGENVECTORS
          ------------

                      1          2          3          4          5
                  -11.0535    -0.7893    -0.3914    -0.3914    -0.3914
                     A          A          A          A          A   
    1  C  1  S    0.563337  -0.103127  -0.000000  -0.000000  -0.000000
    2  C  1  S    0.466127  -0.167033  -0.000000  -0.000000  -0.000000
    3  C  1  X    0.000000  -0.000000   0.103891   0.013883   0.161889
    4  C  1  Y    0.000000  -0.000000  -0.045551   0.186936   0.013201
    5  C  1  Z    0.000000  -0.000001   0.155967   0.045348  -0.103981
    6  C  1  S    0.005120   0.430266   0.000001   0.000001   0.000000
    7  C  1  X   -0.000000  -0.000001   0.154977   0.020710   0.241492
    8  C  1  Y   -0.000000  -0.000000  -0.067950   0.278856   0.019692
    9  C  1  Z   -0.000000  -0.000001   0.232659   0.067646  -0.155110
   10  C  1  S    0.001705   0.345856   0.000001   0.000001  -0.000000
   11  C  1  X    0.000000  -0.000000   0.122955   0.016431   0.191594
   12  C  1  Y    0.000000  -0.000000  -0.053910   0.221237   0.015623
   13  C  1  Z    0.000000  -0.000000   0.184586   0.053669  -0.123060
   14  C  1  S   -0.000149  -0.014231  -0.000000  -0.000001  -0.000000
   15  C  1  X   -0.000000   0.000000  -0.015992  -0.002137  -0.024919
   16  C  1  Y   -0.000000   0.000000   0.007011  -0.028774  -0.002032
   17  C  1  Z   -0.000000   0.000000  -0.024007  -0.006980   0.016005
   18  C  1 XX   -0.000847   0.017873   0.005735  -0.015072  -0.012028
   19  C  1 YY   -0.000847   0.017873  -0.025568   0.009593  -0.003317
   20  C  1 ZZ   -0.000847   0.017873   0.019833   0.005480   0.015345
   21  C  1 XY   -0.000000  -0.000000   0.018071  -0.012123  -0.033650
   22  C  1 XZ   -0.000000   0.000000   0.020024   0.036124  -0.005523
   23  C  1 YZ   -0.000000  -0.000000   0.022213  -0.016008   0.022745
   24  C  1 XXX  -0.000053  -0.002637   0.008180   0.002666   0.015074
   25  C  1 YYY   0.000099   0.004923  -0.006492   0.017143   0.001341
   26  C  1 ZZZ   0.000059   0.002950   0.014796   0.005972  -0.008526
   27  C  1 XXY  -0.000147  -0.007339  -0.000875   0.009852   0.002408
   28  C  1 XXZ   0.000066   0.003313   0.007609   0.002635  -0.006523
   29  C  1 YYX  -0.000139  -0.006937   0.005315  -0.000878   0.008482
   30  C  1 YYZ  -0.000146  -0.007271   0.007603  -0.000453  -0.005414
   31  C  1 ZZX   0.000210   0.010474   0.007066   0.000422   0.007688
   32  C  1 ZZY   0.000015   0.000733  -0.000656   0.009173  -0.001239
   33  C  1 XYZ   0.000262   0.013074  -0.000360  -0.000712   0.000720
   34  H  2  S    0.000308   0.080930  -0.011013  -0.093515  -0.144841
   35  H  2  S   -0.000036   0.075613  -0.015276  -0.129716  -0.200911
   36  H  2  S   -0.000220   0.001512  -0.006998  -0.059428  -0.092046
   37  H  2  S    0.000069   0.005595  -0.003953  -0.033570  -0.051994
   38  H  3  S    0.000308   0.080930  -0.019349  -0.103487   0.136972
   39  H  3  S   -0.000036   0.075613  -0.026839  -0.143548   0.189995
   40  H  3  S   -0.000220   0.001512  -0.012296  -0.065766   0.087046
   41  H  3  S    0.000069   0.005595  -0.006946  -0.037149   0.049170
   42  H  4  S    0.000308   0.080929   0.154531   0.076890   0.007292
   43  H  4  S   -0.000036   0.075613   0.214353   0.106655   0.010115
   44  H  4  S   -0.000220   0.001512   0.098205   0.048864   0.004634
   45  H  4  S    0.000069   0.005595   0.055473   0.027602   0.002618
   46  H  5  S    0.000308   0.080930  -0.124169   0.120112   0.000577
   47  H  5  S   -0.000036   0.075613  -0.172236   0.166609   0.000801
   48  H  5  S   -0.000220   0.001512  -0.078909   0.076331   0.000367
   49  H  5  S    0.000069   0.005595  -0.044574   0.043118   0.000207

                      6          7          8          9         10
                    0.1696     0.2048     0.2048     0.2048     0.2914
                     A          A          A          A          A   
    1  C  1  S   -0.015821  -0.000000   0.000000   0.000000  -0.000000
    2  C  1  S   -0.023908  -0.000000   0.000000   0.000000   0.000000
    3  C  1  X    0.000000  -0.011697   0.010047   0.016954  -0.018483
    4  C  1  Y    0.000000  -0.002690  -0.020345   0.010201  -0.008928
    5  C  1  Z    0.000000  -0.019523  -0.003216  -0.011563   0.012425
    6  C  1  S    0.106375   0.000000  -0.000000  -0.000000   0.000000
    7  C  1  X    0.000001  -0.057299   0.049217   0.083049   0.007679
    8  C  1  Y    0.000000  -0.013177  -0.099660   0.049969   0.003709
    9  C  1  Z    0.000001  -0.095634  -0.015756  -0.056644  -0.005163
   10  C  1  S    0.033987   0.000000   0.000001  -0.000000  -0.000001
   11  C  1  X   -0.000001   0.100065  -0.085950  -0.145033  -0.126879
   12  C  1  Y   -0.000001   0.023012   0.174042  -0.087264  -0.061288
   13  C  1  Z   -0.000001   0.167011   0.027516   0.098921   0.085298
   14  C  1  S    7.391303   0.000047   0.000006  -0.000017   0.000004
   15  C  1  X   -0.000005  -0.771006   0.662246   1.117483   2.847185
   16  C  1  Y   -0.000005  -0.177312  -1.340995   0.672368   1.375300
   17  C  1  Z   -0.000011  -1.286827  -0.212010  -0.762189  -1.914099
   18  C  1 XX    0.014655  -0.000064   0.001842  -0.003093   0.014278
   19  C  1 YY    0.014655   0.003667  -0.003227   0.000605  -0.001752
   20  C  1 ZZ    0.014655  -0.003604   0.001386   0.002488  -0.012526
   21  C  1 XY   -0.000000  -0.002404   0.000639  -0.006726   0.032410
   22  C  1 XZ    0.000000  -0.005645  -0.004759   0.001043  -0.003083
   23  C  1 YZ    0.000000  -0.002623   0.005349   0.002254  -0.012958
   24  C  1 XXX  -0.000081   0.002923  -0.002891  -0.003382  -0.007169
   25  C  1 YYY   0.000151   0.001521   0.004199  -0.002095  -0.003417
   26  C  1 ZZZ   0.000091   0.003866   0.000280   0.003218   0.001392
   27  C  1 XXY  -0.000226  -0.000439   0.001657   0.000018  -0.005349
   28  C  1 XXZ   0.000102   0.001311  -0.000164   0.000317   0.005325
   29  C  1 YYX  -0.000213   0.000972  -0.000012  -0.001231  -0.004777
   30  C  1 YYZ  -0.000224   0.001787   0.001152   0.000272   0.005067
   31  C  1 ZZX   0.000322   0.000071  -0.000372  -0.001426  -0.003840
   32  C  1 ZZY   0.000023  -0.000460   0.001342  -0.001536   0.001126
   33  C  1 XYZ   0.000402   0.000257   0.000328   0.000190  -0.000892
   34  H  2  S   -0.001800   0.005210   0.002811  -0.021821   0.046056
   35  H  2  S    0.048089  -0.010518  -0.005676   0.044053  -0.106776
   36  H  2  S   -0.498561   0.151244   0.081607  -0.633411   1.105133
   37  H  2  S   -1.794655  -1.183224  -0.638413   4.955127   4.743907
   38  H  3  S   -0.001800   0.007531   0.017697   0.011888  -0.028484
   39  H  3  S    0.048089  -0.015204  -0.035727  -0.023999   0.066036
   40  H  3  S   -0.498559   0.218611   0.513693   0.345070  -0.683478
   41  H  3  S   -1.794666  -1.710235  -4.018583  -2.699431  -2.933906
   42  H  4  S   -0.001800  -0.022442  -0.001587   0.002246  -0.004315
   43  H  4  S    0.048088   0.045307   0.003204  -0.004534   0.010005
   44  H  4  S   -0.498549  -0.651440  -0.046061   0.065192  -0.103550
   45  H  4  S   -1.794657   5.096146   0.360321  -0.509977  -0.444498
   46  H  5  S   -0.001800   0.009700  -0.018921   0.007688  -0.013257
   47  H  5  S    0.048089  -0.019582   0.038199  -0.015520   0.030735
   48  H  5  S   -0.498558   0.281565  -0.549242   0.223155  -0.318106
   49  H  5  S   -1.794662  -2.202723   4.296671  -1.745705  -1.365506

                     11         12         13         14         15
                    0.2914     0.2914     0.3229     0.4550     0.4550
                     A          A          A          A          A   
    1  C  1  S    0.000000   0.000000   0.037015  -0.000001   0.000000
    2  C  1  S    0.000000   0.000000   0.065060  -0.000001   0.000000
    3  C  1  X   -0.008478   0.012737  -0.000000   0.082346   0.109597
    4  C  1  Y    0.022197   0.001819  -0.000000   0.038548  -0.115847
    5  C  1  Z    0.003338   0.020253  -0.000000   0.135282  -0.033702
    6  C  1  S   -0.000000  -0.000001  -0.149984   0.000001  -0.000000
    7  C  1  X    0.003522  -0.005292   0.000001   0.031948   0.042520
    8  C  1  Y   -0.009222  -0.000756   0.000001   0.014955  -0.044945
    9  C  1  Z   -0.001387  -0.008414   0.000001   0.052485  -0.013075
   10  C  1  S    0.000001   0.000003  -0.467124   0.000038  -0.000001
   11  C  1  X   -0.058197   0.087435  -0.000004   0.793717   1.056379
   12  C  1  Y    0.152375   0.012485  -0.000002   0.371553  -1.116628
   13  C  1  Z    0.022916   0.139028  -0.000005   1.303950  -0.324842
   14  C  1  S    0.000010   0.000052  14.601284   0.000134   0.000005
   15  C  1  X    1.305947  -1.962080  -0.000014  -0.489002  -0.650829
   16  C  1  Y   -3.419321  -0.280172  -0.000012  -0.228912   0.687948
   17  C  1  Z   -0.514242  -3.119862  -0.000016  -0.803353   0.200136
   18  C  1 XX   -0.010111   0.000721  -0.000621   0.000342  -0.000953
   19  C  1 YY    0.015032  -0.018555  -0.000621   0.003533   0.003479
   20  C  1 ZZ   -0.004921   0.017832  -0.000621  -0.003876  -0.002526
   21  C  1 XY   -0.005170   0.011807  -0.000000  -0.002071   0.001200
   22  C  1 XZ    0.024740   0.026342  -0.000000  -0.006672   0.004084
   23  C  1 YZ   -0.024428   0.013974  -0.000000  -0.002357  -0.006459
   24  C  1 XXX   0.000103   0.002542   0.002446   0.018744   0.024729
   25  C  1 YYY   0.008162  -0.003286  -0.004567   0.008081  -0.026965
   26  C  1 ZZZ   0.003131   0.008214  -0.002737   0.031636  -0.007928
   27  C  1 XXY   0.005083   0.003090   0.006808   0.004694  -0.011918
   28  C  1 XXZ   0.002295   0.005330  -0.003073   0.014489  -0.004054
   29  C  1 YYX  -0.005042   0.002762   0.006435   0.008578   0.012265
   30  C  1 YYZ  -0.003202   0.003631   0.006745   0.013935  -0.002964
   31  C  1 ZZX  -0.003460   0.006395  -0.009716   0.009412   0.011971
   32  C  1 ZZY   0.005866   0.003113  -0.000680   0.004658  -0.012591
   33  C  1 XYZ  -0.001331  -0.000994  -0.012128  -0.000252   0.000313
   34  H  2  S   -0.010265  -0.010890  -0.015432   0.011319   0.006642
   35  H  2  S    0.023799   0.025250   0.188361   0.006048   0.003548
   36  H  2  S   -0.246320  -0.261329  -1.487707   0.888657   0.521440
   37  H  2  S   -1.057351  -1.121759  -2.580112  -0.935408  -0.548844
   38  H  3  S   -0.036452  -0.014319  -0.015432   0.014383  -0.032814
   39  H  3  S    0.084511   0.033198   0.188361   0.007684  -0.017528
   40  H  3  S   -0.874693  -0.343599  -1.487705   1.129235  -2.576214
   41  H  3  S   -3.754708  -1.474909  -2.580107  -1.188628   2.711598
   42  H  4  S    0.006018   0.047857  -0.015432  -0.037689  -0.001674
   43  H  4  S   -0.013951  -0.110951   0.188361  -0.020131  -0.000894
   44  H  4  S    0.144397   1.148352  -1.487693  -2.958917  -0.131404
   45  H  4  S    0.619842   4.929397  -2.580082   3.114351   0.138306
   46  H  5  S    0.040700  -0.022647  -0.015432   0.011984   0.027846
   47  H  5  S   -0.094358   0.052507   0.188361   0.006403   0.014874
   48  H  5  S    0.976610  -0.543445  -1.487704   0.940893   2.186178
   49  H  5  S    4.192211  -2.332768  -2.580103  -0.990384  -2.301063

                     16         17         18         19         20
                    0.4550     0.5209     0.7024     0.7024     0.7024
                     A          A          A          A          A   
    1  C  1  S    0.000000  -0.049916   0.000000   0.000000   0.000000
    2  C  1  S    0.000000  -0.100415   0.000000  -0.000000   0.000000
    3  C  1  X   -0.088179  -0.000001  -0.007590   0.000308  -0.005076
    4  C  1  Y   -0.107988  -0.000001  -0.000202  -0.009130  -0.000252
    5  C  1  Z    0.084445  -0.000002   0.005081   0.000097  -0.007593
    6  C  1  S   -0.000000  -0.003927  -0.000000  -0.000000  -0.000001
    7  C  1  X   -0.034211   0.000000   0.064592  -0.002621   0.043191
    8  C  1  Y   -0.041896   0.000000   0.001720   0.077698   0.002144
    9  C  1  Z    0.032762   0.000000  -0.043236  -0.000826   0.064609
   10  C  1  S   -0.000007   4.423017   0.000001   0.000007   0.000027
   11  C  1  X   -0.849938  -0.000017  -1.261034   0.051180  -0.843227
   12  C  1  Y   -1.040869  -0.000011  -0.033578  -1.516898  -0.041850
   13  C  1  Z    0.813949  -0.000023   0.844107   0.016118  -1.261385
   14  C  1  S   -0.000021  14.529820   0.000003   0.000029   0.000075
   15  C  1  X    0.523644  -0.000023   1.479715  -0.060055   0.989456
   16  C  1  Y    0.641274  -0.000019   0.039401   1.779949   0.049109
   17  C  1  Z   -0.501469  -0.000033  -0.990487  -0.018912   1.480129
   18  C  1 XX   -0.003761  -0.065397  -0.006031  -0.008844   0.000714
   19  C  1 YY    0.001945  -0.065397  -0.001919   0.008433  -0.011851
   20  C  1 ZZ    0.001817  -0.065397   0.007950   0.000412   0.011136
   21  C  1 XY   -0.007381  -0.000000  -0.017674  -0.009586   0.007242
   22  C  1 XZ    0.001978  -0.000000  -0.003975   0.015625   0.015294
   23  C  1 YZ    0.000475  -0.000000   0.012450  -0.010785   0.009436
   24  C  1 XXX  -0.020820  -0.001369  -0.013907  -0.003212  -0.007001
   25  C  1 YYY  -0.025156   0.002556  -0.000685  -0.017637   0.004466
   26  C  1 ZZZ   0.018801   0.001531   0.007044  -0.003495  -0.015680
   27  C  1 XXY  -0.012044  -0.003810  -0.004015  -0.011536  -0.003659
   28  C  1 XXZ   0.009340   0.001720   0.009128  -0.000640  -0.008981
   29  C  1 YYX  -0.009206  -0.003602  -0.010251   0.003744  -0.005536
   30  C  1 YYZ   0.009673  -0.003775   0.006349   0.005804  -0.007234
   31  C  1 ZZX  -0.009055   0.005438  -0.008332   0.002077  -0.009974
   32  C  1 ZZY  -0.010776   0.000381   0.003943  -0.009599  -0.003569
   33  C  1 XYZ  -0.000102   0.006788  -0.001668   0.001230   0.001146
   34  H  2  S   -0.035384  -0.041037  -0.055917  -0.037506  -0.015206
   35  H  2  S   -0.018901   0.040585  -1.272541  -0.853559  -0.346064
   36  H  2  S   -2.778013  -3.548380   1.250037   0.838457   0.339923
   37  H  2  S    2.924011  -1.948902   1.246830   0.836312   0.339064
   38  H  3  S    0.011860  -0.041037   0.056764  -0.035311  -0.017194
   39  H  3  S    0.006335   0.040585   1.291821  -0.803595  -0.391305
   40  H  3  S    0.931095  -3.548375  -1.268978   0.789377   0.384363
   41  H  3  S   -0.980019  -1.948903  -1.265721   0.787356   0.383391
   42  H  4  S    0.001047  -0.041038   0.000931   0.013516   0.067684
   43  H  4  S    0.000559   0.040583   0.021181   0.307599   1.540338
   44  H  4  S    0.082181  -3.548292  -0.020807  -0.302168  -1.513113
   45  H  4  S   -0.086494  -1.948872  -0.020754  -0.301384  -1.509228
   46  H  5  S    0.022478  -0.041037  -0.001778   0.059301  -0.035282
   47  H  5  S    0.012006   0.040585  -0.040461   1.349558  -0.802962
   48  H  5  S    1.764758  -3.548369   0.039745  -1.325696   0.788736
   49  H  5  S   -1.857488  -1.948896   0.039643  -1.322299   0.786737

                     21         22         23         24         25
                    1.0109     1.0303     1.0303     1.0303     1.1125
                     A          A          A          A          A   
    1  C  1  S    0.012076  -0.000000  -0.000000   0.000000   0.112342
    2  C  1  S    0.033290   0.000001   0.000000   0.000000   0.136009
    3  C  1  X   -0.000011   0.130582   0.219571   0.001641   0.000002
    4  C  1  Y   -0.000006   0.077922  -0.048123   0.238491   0.000001
    5  C  1  Z   -0.000015   0.205286  -0.121402  -0.091570   0.000002
    6  C  1  S    0.383686   0.000050   0.000004   0.000000  -2.011205
    7  C  1  X   -0.000049   0.589258   0.990829   0.007403   0.000008
    8  C  1  Y   -0.000027   0.351629  -0.217159   1.076207   0.000004
    9  C  1  Z   -0.000068   0.926366  -0.547834  -0.413215   0.000010
   10  C  1  S   -2.889709  -0.000286  -0.000020  -0.000002   6.364057
   11  C  1  X    0.000102  -1.042486  -1.752923  -0.013098  -0.000018
   12  C  1  Y    0.000058  -0.622084   0.384187  -1.903969  -0.000010
   13  C  1  Z    0.000140  -1.638880   0.969199   0.731037  -0.000024
   14  C  1  S    8.283608   0.000650   0.000035   0.000013   3.900404
   15  C  1  X   -0.000061   0.507583   0.853494   0.006378  -0.000006
   16  C  1  Y   -0.000037   0.302892  -0.187060   0.927037  -0.000006
   17  C  1  Z   -0.000084   0.797965  -0.471901  -0.355940  -0.000010
   18  C  1 XX    0.061667   0.002122   0.004935   0.012307  -0.389275
   19  C  1 YY    0.061667   0.011266   0.005727  -0.013325  -0.389274
   20  C  1 ZZ    0.061669  -0.013362  -0.010660   0.001018  -0.389275
   21  C  1 XY    0.000000  -0.005696   0.018300   0.018653  -0.000000
   22  C  1 XZ    0.000002  -0.023910   0.007514  -0.012052  -0.000000
   23  C  1 YZ    0.000001  -0.007331  -0.018955   0.012301  -0.000000
   24  C  1 XXX   0.004528   0.006411   0.010709  -0.000220  -0.000671
   25  C  1 YYY  -0.008457   0.004098  -0.002313   0.011394   0.001253
   26  C  1 ZZZ  -0.005068   0.009753  -0.005995  -0.004687   0.000751
   27  C  1 XXY   0.012605   0.001374  -0.001270   0.004899  -0.001867
   28  C  1 XXZ  -0.005691   0.004237  -0.002287  -0.001899   0.000843
   29  C  1 YYX   0.011914   0.002810   0.004414   0.000232  -0.001765
   30  C  1 YYZ   0.012489   0.004492  -0.002570  -0.001543  -0.001850
   31  C  1 ZZX  -0.017990   0.002465   0.004549   0.000237   0.002665
   32  C  1 ZZY  -0.001259   0.001409  -0.000741   0.005157   0.000187
   33  C  1 XYZ  -0.022456   0.000104  -0.000130   0.000034   0.003327
   34  H  2  S    0.057551   0.021353   0.042069   0.038497   0.043621
   35  H  2  S    1.461233   0.237488   0.467758   0.428042   0.175314
   36  H  2  S   -1.484849  -0.803302  -1.582732  -1.448363  -2.207397
   37  H  2  S   -1.224324   0.796091   1.568912   1.435720  -0.301437
   38  H  3  S    0.057551   0.024034  -0.054215   0.013816   0.043621
   39  H  3  S    1.461235   0.267297  -0.602796   0.153617   0.175313
   40  H  3  S   -1.484859  -0.904167   2.039697  -0.519792  -2.207393
   41  H  3  S   -1.224313   0.896076  -2.021911   0.515252  -0.301438
   42  H  4  S    0.057558  -0.060637  -0.002889   0.004683   0.043620
   43  H  4  S    1.461288  -0.674131  -0.032116   0.052074   0.175301
   44  H  4  S   -1.485100   2.281347   0.108688  -0.176202  -2.207340
   45  H  4  S   -1.224023  -2.261637  -0.107750   0.174658  -0.301436
   46  H  5  S    0.057551   0.015266   0.015036  -0.056996   0.043621
   47  H  5  S    1.461237   0.169807   0.167182  -0.633730   0.175313
   48  H  5  S   -1.484874  -0.574288  -0.565673   2.144348  -2.207392
   49  H  5  S   -1.224291   0.569073   0.560727  -2.125638  -0.301434

                     26         27         28         29         30
                    1.6744     1.6744     2.0225     2.0225     2.0225
                     A          A          A          A          A   
    1  C  1  S    0.000000  -0.000000  -0.000000   0.000000   0.000000
    2  C  1  S    0.000000  -0.000000  -0.000000   0.000000   0.000000
    3  C  1  X   -0.000000  -0.000000  -0.007003   0.035999   0.011554
    4  C  1  Y   -0.000000   0.000000  -0.031399   0.001007  -0.022170
    5  C  1  Z    0.000000  -0.000000  -0.021059  -0.013473   0.029214
    6  C  1  S   -0.000000   0.000001  -0.000000  -0.000000  -0.000000
    7  C  1  X   -0.000000  -0.000000  -0.006067   0.031189   0.010010
    8  C  1  Y   -0.000000   0.000000  -0.027204   0.000873  -0.019208
    9  C  1  Z    0.000000  -0.000000  -0.018244  -0.011673   0.025310
   10  C  1  S    0.000001  -0.000003   0.000010  -0.000004  -0.000009
   11  C  1  X    0.000000  -0.000000  -0.162173   0.833619   0.267560
   12  C  1  Y    0.000000  -0.000000  -0.727115   0.023325  -0.513389
   13  C  1  Z    0.000000  -0.000000  -0.487664  -0.311994   0.676505
   14  C  1  S    0.000000  -0.000001   0.000018  -0.000004  -0.000006
   15  C  1  X    0.000000   0.000000   0.129657  -0.666481  -0.213915
   16  C  1  Y    0.000000  -0.000000   0.581330  -0.018648   0.410456
   17  C  1  Z   -0.000000   0.000000   0.389888   0.249440  -0.540867
   18  C  1 XX   -0.711089  -0.534631   0.282376  -0.273158   0.332910
   19  C  1 YY   -0.064218   0.778455  -0.008684  -0.220942  -0.668530
   20  C  1 ZZ    0.775307  -0.243824  -0.273693   0.494101   0.335620
   21  C  1 XY    0.252811   0.329741   0.054094  -0.745062   0.702939
   22  C  1 XZ   -0.316717   0.071259  -1.053790  -0.018369   0.163972
   23  C  1 YZ   -0.308536   0.502007   0.234893   0.686455   0.551159
   24  C  1 XXX   0.000000   0.000000  -0.022099   0.080517   0.012080
   25  C  1 YYY   0.000000  -0.000000  -0.064192  -0.000631  -0.066585
   26  C  1 ZZZ  -0.000001   0.000000  -0.061260  -0.021588   0.062547
   27  C  1 XXY  -0.000000   0.000000  -0.048990   0.017141  -0.024205
   28  C  1 XXZ   0.000000   0.000000  -0.031680  -0.028724   0.039341
   29  C  1 YYX  -0.000000  -0.000000   0.001913   0.051949   0.020378
   30  C  1 YYZ   0.000000  -0.000001  -0.008333  -0.020495   0.046266
   31  C  1 ZZX  -0.000000  -0.000000  -0.012902   0.048922   0.030462
   32  C  1 ZZY   0.000000  -0.000000  -0.047094  -0.010449  -0.015111
   33  C  1 XYZ  -0.000000  -0.000000   0.006674   0.004844  -0.001687
   34  H  2  S    0.000000  -0.000000   0.162488  -0.299344   0.107506
   35  H  2  S   -0.000001   0.000001  -0.848193   1.562579  -0.561175
   36  H  2  S    0.000000   0.000000   0.441193  -0.812796   0.291908
   37  H  2  S   -0.000000   0.000000   0.235263  -0.433412   0.155653
   38  H  3  S   -0.000000  -0.000000   0.238135   0.265740  -0.015528
   39  H  3  S    0.000000   0.000001  -1.243068  -1.387160   0.081059
   40  H  3  S   -0.000001   0.000000   0.646593   0.721554  -0.042160
   41  H  3  S   -0.000000   0.000000   0.344789   0.384756  -0.022484
   42  H  4  S    0.000000  -0.000000  -0.258311   0.084995   0.231555
   43  H  4  S   -0.000000   0.000001   1.348384  -0.443675  -1.208721
   44  H  4  S   -0.000000   0.000000  -0.701384   0.230784   0.628733
   45  H  4  S   -0.000000   0.000000  -0.374007   0.123064   0.335270
   46  H  5  S   -0.000000   0.000000  -0.142315  -0.051390  -0.323531
   47  H  5  S   -0.000000   0.000000   0.742882   0.268256   1.688838
   48  H  5  S   -0.000000   0.000001  -0.386428  -0.139535  -0.878467
   49  H  5  S   -0.000000   0.000000  -0.206053  -0.074407  -0.468437

                     31         32         33         34         35
                    2.6666     2.8064     2.8064     2.8064     3.1851
                     A          A          A          A          A   
    1  C  1  S   -0.041883   0.000000   0.000000   0.000000   0.000000
    2  C  1  S   -0.128605   0.000001   0.000000   0.000000   0.000000
    3  C  1  X    0.000001   0.186876   0.293174   0.052708  -0.000001
    4  C  1  Y    0.000000   0.082309  -0.110623   0.323480   0.000003
    5  C  1  Z    0.000002   0.286279  -0.159571  -0.127413  -0.000001
    6  C  1  S    0.201774  -0.000002  -0.000000  -0.000000  -0.000000
    7  C  1  X   -0.000000  -0.097304  -0.152653  -0.027445   0.000000
    8  C  1  Y    0.000000  -0.042858   0.057600  -0.168433  -0.000001
    9  C  1  Z    0.000000  -0.149063   0.083087   0.066343   0.000000
   10  C  1  S   -0.291836   0.000004   0.000000   0.000000  -0.000000
   11  C  1  X    0.000006   0.183810   0.288366   0.051844  -0.000001
   12  C  1  Y    0.000004   0.080960  -0.108808   0.318175   0.000003
   13  C  1  Z    0.000008   0.281582  -0.156954  -0.125323  -0.000001
   14  C  1  S    5.770059  -0.000053  -0.000002  -0.000005   0.000000
   15  C  1  X   -0.000011   0.031010   0.048646   0.008745   0.000000
   16  C  1  Y   -0.000008   0.013658  -0.018356   0.053675  -0.000001
   17  C  1  Z   -0.000015   0.047505  -0.026477  -0.021142   0.000000
   18  C  1 XX   -0.292847  -0.016856  -0.040144  -0.158800  -0.000000
   19  C  1 YY   -0.292847  -0.150899  -0.085406   0.143629   0.000001
   20  C  1 ZZ   -0.292845   0.167762   0.125550   0.015172  -0.000000
   21  C  1 XY    0.000000   0.079860  -0.196178  -0.250428  -0.000000
   22  C  1 XZ    0.000003   0.279708  -0.120044   0.153865   0.000000
   23  C  1 YZ    0.000001   0.106192   0.246341  -0.113663  -0.000001
   24  C  1 XXX   0.061123   0.109310   0.114078  -0.262687   0.237992
[...]

                     36         37         38         39         40
                    3.1851     3.1851     3.2838     3.2838     3.2838
                     A          A          A          A          A   
    1  C  1  S   -0.000000  -0.000000   0.000000   0.000000  -0.000000
    2  C  1  S   -0.000000  -0.000000   0.000000   0.000000  -0.000000
    3  C  1  X    0.000002   0.000001   0.074262  -0.819119  -0.056360
    4  C  1  Y    0.000000  -0.000000   0.038493  -0.053055   0.821798
    5  C  1  Z   -0.000002  -0.000000  -0.820152  -0.076655   0.033467
    6  C  1  S   -0.000000   0.000000  -0.000002  -0.000002   0.000002
    7  C  1  X   -0.000001  -0.000000  -0.015497   0.170933   0.011761
    8  C  1  Y   -0.000000  -0.000000  -0.008033   0.011071  -0.171492
    9  C  1  Z    0.000000   0.000000   0.171148   0.015996  -0.006984
   10  C  1  S    0.000000  -0.000000   0.000002   0.000002  -0.000001
   11  C  1  X    0.000002   0.000001   0.079107  -0.872571  -0.060038
   12  C  1  Y    0.000000   0.000000   0.041005  -0.056517   0.875424
   13  C  1  Z   -0.000002  -0.000000  -0.873672  -0.081659   0.035651
   14  C  1  S    0.000000   0.000000   0.000017   0.000016  -0.000009
   15  C  1  X   -0.000001  -0.000000  -0.041477   0.457503   0.031479
   16  C  1  Y   -0.000000  -0.000000  -0.021499   0.029633  -0.458998
   17  C  1  Z    0.000001   0.000000   0.458080   0.042815  -0.018692
   18  C  1 XX   -0.000000  -0.000000  -0.005127   0.004769  -0.008992
   19  C  1 YY   -0.000000  -0.000000   0.008965   0.009257   0.008763
   20  C  1 ZZ    0.000000   0.000000  -0.003835  -0.014023   0.000227
   21  C  1 XY   -0.000001  -0.000000  -0.018328   0.010003  -0.008908
   22  C  1 XZ   -0.000000  -0.000000  -0.014354  -0.007473   0.017185
   23  C  1 YZ    0.000000   0.000000  -0.000074  -0.016235  -0.011960
   24  C  1 XXX   0.197497  -0.350475   0.076588   0.997678   0.355779
   25  C  1 YYY  -0.022565   0.085140   0.280407   0.282600  -0.833313
   26  C  1 ZZZ  -0.609229  -0.016230   0.912799  -0.152754   0.246938
   27  C  1 XXY   0.594261  -0.177505  -0.021550  -0.392742  -0.090583
   28  C  1 XXZ   0.635612   0.581253  -0.014645   0.202620   0.068218
   29  C  1 YYX  -0.171141   0.793046   0.065166   0.090557  -0.264446
   30  C  1 YYZ   0.181756  -0.559477   0.203506   0.134435  -0.457198
   31  C  1 ZZX  -0.093832  -0.322836  -0.295908  -0.017353  -0.115745
   32  C  1 ZZY  -0.563987   0.063277  -0.420997   0.105032  -0.207756
   33  C  1 XYZ   0.267378   0.038871   0.148248  -0.042280  -0.106958
   34  H  2  S    0.000001   0.000000   0.035496  -0.075490   0.048291
   35  H  2  S   -0.000002  -0.000000  -0.077599   0.165032  -0.105572
   36  H  2  S    0.000002   0.000001   0.240918  -0.512373   0.327768
   37  H  2  S   -0.000002  -0.000001  -0.318679   0.677730  -0.433548
   38  H  3  S   -0.000001  -0.000000  -0.065813   0.044823   0.054315
   39  H  3  S    0.000002   0.000001   0.143878  -0.097991  -0.118741
   40  H  3  S   -0.000003  -0.000001  -0.446696   0.304230   0.368654
   41  H  3  S    0.000002   0.000001   0.590856  -0.402424  -0.487629
   42  H  4  S    0.000000   0.000000   0.071445   0.061209  -0.020960
   43  H  4  S   -0.000000  -0.000000  -0.156188  -0.133811   0.045821
   44  H  4  S    0.000000   0.000000   0.484921   0.415447  -0.142259
   45  H  4  S   -0.000000  -0.000000  -0.641433  -0.549536   0.188176
   46  H  5  S   -0.000000  -0.000000  -0.041129  -0.030545  -0.081646
   47  H  5  S    0.000000   0.000000   0.089915   0.066775   0.178490
   48  H  5  S   -0.000000  -0.000000  -0.279159  -0.207318  -0.554155
   49  H  5  S    0.000000  -0.000000   0.369247   0.274220   0.733006

                     41         42         43         44         45
                    3.5343     4.1320     4.1321     4.1321     4.7799
                     A          A          A          A          A   
    1  C  1  S   -0.158510   0.000000   0.000000  -0.000000   0.054974
    2  C  1  S   -0.612644   0.000001   0.000001  -0.000000   0.224265
    3  C  1  X    0.000000   0.207572  -0.180366  -0.265672   0.000001
    4  C  1  Y    0.000000   0.066882   0.333690  -0.174289   0.000000
    5  C  1  Z    0.000001   0.314075   0.048145   0.212698   0.000001
    6  C  1  S    1.625058   0.000000  -0.000002   0.000001  -1.034007
    7  C  1  X   -0.000001   0.175651  -0.152631  -0.224819   0.000001
    8  C  1  Y   -0.000001   0.056597   0.282378  -0.147489  -0.000000
    9  C  1  Z   -0.000001   0.265775   0.040742   0.179991   0.000001
   10  C  1  S    3.835599  -0.000010  -0.000003   0.000002  -0.512224
   11  C  1  X   -0.000004   0.121554  -0.105621  -0.155575   0.000001
   12  C  1  Y   -0.000003   0.039165   0.195406  -0.102062   0.000001
   13  C  1  Z   -0.000005   0.183921   0.028193   0.124554   0.000002
   14  C  1  S    0.612238  -0.000008   0.000003  -0.000001   1.829458
   15  C  1  X   -0.000004  -0.124904   0.108532   0.159864  -0.000003
   16  C  1  Y   -0.000003  -0.040245  -0.200793   0.104876  -0.000002
   17  C  1  Z   -0.000005  -0.188990  -0.028970  -0.127988  -0.000004
   18  C  1 XX   -1.521932   0.013202   0.118120  -0.209130   0.634879
   19  C  1 YY   -1.521933   0.234750  -0.222120   0.061158   0.634881
   20  C  1 ZZ   -1.521933  -0.247943   0.104005   0.147970   0.634879
   21  C  1 XY   -0.000000  -0.129578   0.036833  -0.459816  -0.000001
   22  C  1 XZ   -0.000000  -0.391059  -0.304363   0.051686   0.000000
   23  C  1 YZ   -0.000000  -0.172969   0.366178   0.130899  -0.000002
   24  C  1 XXX  -0.052194   0.010200  -0.239874   0.413293  -0.158349
   25  C  1 YYY   0.097463   0.450001  -0.418903   0.251154   0.295679
   26  C  1 ZZZ   0.058402  -0.505536  -0.255396   0.199207   0.177175
   27  C  1 XXY  -0.145274  -0.452300  -0.276930   0.599162  -0.440728
   28  C  1 XXZ   0.065586  -0.420446  -0.281198  -0.539364   0.198971
   29  C  1 YYX  -0.137314  -0.166761   0.607473   0.312053  -0.416585
   30  C  1 YYZ  -0.143939  -0.134020   0.434882  -0.562728  -0.436686
   31  C  1 ZZX   0.207340  -0.661625   0.422279   0.176204   0.629025
   32  C  1 ZZY   0.014514  -0.413943  -0.470769  -0.252044   0.044033
   33  C  1 XYZ   0.258806   0.140613   0.178861   0.109906   0.785163
   34  H  2  S   -0.014465  -0.363141  -0.114933   1.163480  -0.779743
   35  H  2  S   -0.013802   0.240866   0.076233  -0.771717   0.599170
   36  H  2  S   -0.834418  -0.115635  -0.036599   0.370500  -0.420092
   37  H  2  S    0.031774  -0.044176  -0.013982   0.141535  -0.258321
   38  H  3  S   -0.014465  -0.396081  -0.960282  -0.647877  -0.779742
   39  H  3  S   -0.013802   0.262714   0.636939   0.429726   0.599170
   40  H  3  S   -0.834417  -0.126125  -0.305794  -0.206312  -0.420092
   41  H  3  S    0.031774  -0.048184  -0.116817  -0.078813  -0.258321
   42  H  4  S   -0.014463   1.222631   0.045179  -0.043319  -0.779740
   43  H  4  S   -0.013802  -0.810957  -0.029966   0.028733   0.599172
   44  H  4  S   -0.834408   0.389340   0.014387  -0.013795  -0.420094
   45  H  4  S    0.031783   0.148738   0.005495  -0.005269  -0.258312
   46  H  5  S   -0.014465  -0.463407   1.030031  -0.472282  -0.779747
   47  H  5  S   -0.013801   0.307370  -0.683202   0.313257   0.599173
   48  H  5  S   -0.834417  -0.147563   0.328005  -0.150394  -0.420094
   49  H  5  S    0.031776  -0.056375   0.125302  -0.057453  -0.258320

                     46         47         48         49
                    9.6535     9.6535     9.6535    27.8516
                     A          A          A          A   
    1  C  1  S   -0.000000  -0.000000  -0.000000  -2.115182
    2  C  1  S   -0.000000  -0.000000  -0.000000   2.569503
    3  C  1  X   -3.135159  -0.723102  -2.019763   0.000000
    4  C  1  Y    0.095049  -3.619891   1.148430   0.000000
    5  C  1  Z    2.143194  -0.897246  -3.005529   0.000001
    6  C  1  S   -0.000000  -0.000001  -0.000001  -1.094963
    7  C  1  X   13.005482   2.999620   8.378520  -0.000001
    8  C  1  Y   -0.394287  15.016283  -4.763999  -0.000001
    9  C  1  Z   -8.890548   3.722018  12.467744  -0.000002
   10  C  1  S    0.000000   0.000005   0.000006  -1.124996
   11  C  1  X   -1.783808  -0.411422  -1.149183   0.000001
   12  C  1  Y    0.054080  -2.059606   0.653421   0.000001
   13  C  1  Z    1.219411  -0.510505  -1.710053   0.000002
   14  C  1  S    0.000000   0.000024   0.000027  -0.236774
   15  C  1  X    0.683037   0.157537   0.440032   0.000001
   16  C  1  Y   -0.020708   0.788642  -0.250201   0.000001
   17  C  1  Z   -0.466924   0.195477   0.654795   0.000002
   18  C  1 XX   -0.026763  -0.040007   0.017196   0.657375
   19  C  1 YY   -0.010390   0.018925  -0.066473   0.657375
   20  C  1 ZZ    0.037153   0.021080   0.049274   0.657375
   21  C  1 XY   -0.082345  -0.035785   0.048002  -0.000000
   22  C  1 XZ   -0.023207   0.093235   0.044461  -0.000000
   23  C  1 YZ    0.061152  -0.030872   0.059042  -0.000000
   24  C  1 XXX  -6.695007  -1.528816  -4.331001  -0.006960
   25  C  1 YYY   0.204710  -7.733215   2.425405   0.012998
   26  C  1 ZZZ   4.587318  -1.893392  -6.414959   0.007789
   27  C  1 XXY   0.110272  -3.428857   1.106927  -0.019373
   28  C  1 XXZ   2.019414  -0.849506  -2.857032   0.008746
   29  C  1 YYX  -2.971209  -0.704772  -1.915554  -0.018311
   30  C  1 YYZ   2.036124  -0.884676  -2.854586  -0.019195
   31  C  1 ZZX  -2.982235  -0.688926  -1.895848   0.027650
   32  C  1 ZZY   0.067888  -3.440926   1.110115   0.001936
   33  C  1 XYZ   0.009368  -0.007858  -0.003702   0.034513
   34  H  2  S   -0.040677  -0.032474  -0.001333  -0.054751
   35  H  2  S    0.446771   0.356668   0.014641   0.008659
   36  H  2  S   -1.007226  -0.804093  -0.033007   0.257197
   37  H  2  S    1.188781   0.949022   0.038944  -0.002211
   38  H  3  S    0.044159  -0.027335  -0.003714  -0.054751
   39  H  3  S   -0.485005   0.300226   0.040794   0.008659
   40  H  3  S    1.093424  -0.676848  -0.091969   0.257197
   41  H  3  S   -1.290517   0.798840   0.108533  -0.002211
   42  H  4  S   -0.000341   0.026411   0.044867  -0.054751
   43  H  4  S    0.003740  -0.290090  -0.492803   0.008659
   44  H  4  S   -0.008432   0.653997   1.111006   0.257194
   45  H  4  S    0.009951  -0.771891  -1.311277  -0.002214
   46  H  5  S   -0.003141   0.033396  -0.039823  -0.054752
   47  H  5  S    0.034495  -0.366793   0.437382   0.008659
   48  H  5  S   -0.077767   0.826920  -0.986059   0.257197
   49  H  5  S    0.091785  -0.975985   1.163784  -0.002212
 ...... END OF UHF CALCULATION ......
 CPU     0: STEP CPU TIME=     0.23 TOTAL CPU TIME=          0.3 (      0.0 MIN)
 TOTAL WALL CLOCK TIME=          0.8 SECONDS, CPU UTILIZATION IS    40.00%

     ----------------------------------------------------------------
     PROPERTY VALUES FOR THE UHF   SELF-CONSISTENT FIELD WAVEFUNCTION
     ----------------------------------------------------------------

          -----------------
          ENERGY COMPONENTS
          -----------------

         WAVEFUNCTION NORMALIZATION =       1.0000000000

                ONE ELECTRON ENERGY =     -81.2007358388
                TWO ELECTRON ENERGY =      27.6011715131
           NUCLEAR REPULSION ENERGY =      13.4353882208
                                      ------------------
                       TOTAL ENERGY =     -40.1641761049

 ELECTRON-ELECTRON POTENTIAL ENERGY =      27.6011715131
  NUCLEUS-ELECTRON POTENTIAL ENERGY =    -121.4137348317
   NUCLEUS-NUCLEUS POTENTIAL ENERGY =      13.4353882208
                                      ------------------
             TOTAL POTENTIAL ENERGY =     -80.3771750978
               TOTAL KINETIC ENERGY =      40.2129989929
                 VIRIAL RATIO (V/T) =       1.9987858929

          ---------------------------------------
          MULLIKEN AND LOWDIN POPULATION ANALYSES
          ---------------------------------------

     ATOMIC MULLIKEN POPULATION IN EACH MOLECULAR ORBITAL
        ALPHA ORBITALS

                      1          2          3          4          5

                  1.000000   1.000000   1.000000   1.000000   1.000000

    1             1.000054   0.705078   0.557286   0.557287   0.557287
    2            -0.000014   0.073731   0.001577   0.093441   0.237017
    3            -0.000014   0.073731   0.004502   0.122617   0.204916
    4            -0.000014   0.073730   0.267898   0.063409   0.000729
    5            -0.000014   0.073731   0.168737   0.163246   0.000051

                      6

                  1.000000

    1            -3.495689
    2             1.123930
    3             1.123926
    4             1.123907
    5             1.123925

     ATOMIC MULLIKEN POPULATION IN EACH MOLECULAR ORBITAL
         BETA ORBITALS

                      1          2          3          4          5

                  1.000000   1.000000   1.000000   1.000000   1.000000

    1             1.000061   0.706771   0.562657   0.562657   0.562658
    2            -0.000015   0.073308   0.001333   0.096110   0.230563
    3            -0.000015   0.073308   0.004115   0.117701   0.206191
    4            -0.000015   0.073307   0.262449   0.064976   0.000584
    5            -0.000015   0.073308   0.169447   0.158555   0.000004

     ATOMIC SPIN POPULATION (ALPHA MINUS BETA)
       ATOM         MULL.POP.                    LOW.POP.
    1 C            -3.513500                     0.035507
    2 H             1.128381                     0.241123
    3 H             1.128381                     0.241142
    4 H             1.128360                     0.241115
    5 H             1.128379                     0.241112


          ********* ALL ELECTRONS ********

               ----- POPULATIONS IN EACH AO -----
                             MULLIKEN      LOWDIN
              1  C  1  S      1.10334     1.04733
              2  C  1  S      0.89044     0.91234
              3  C  1  X      0.20303     0.17992
              4  C  1  Y      0.20303     0.18002
              5  C  1  Z      0.20303     0.17998
              6  C  1  S      0.72772     0.41737
              7  C  1  X      0.49770     0.30039
              8  C  1  Y      0.49770     0.30085
              9  C  1  Z      0.49770     0.30078
             10  C  1  S      0.63357     0.26941
             11  C  1  X      0.37740     0.32434
             12  C  1  Y      0.37740     0.32451
             13  C  1  Z      0.37740     0.32456
             14  C  1  S     -3.51978     0.04162
             15  C  1  X     -0.02687     0.05142
             16  C  1  Y     -0.02687     0.05143
             17  C  1  Z     -0.02687     0.05144
             18  C  1 XX      0.02820     0.15929
             19  C  1 YY      0.03066     0.16221
             20  C  1 ZZ      0.02998     0.16144
             21  C  1 XY      0.01679     0.02371
             22  C  1 XZ      0.01815     0.02565
             23  C  1 YZ      0.01325     0.01871
             24  C  1 XXX     0.02496     0.18250
             25  C  1 YYY     0.02685     0.18856
             26  C  1 ZZZ     0.02626     0.18688
             27  C  1 XXY     0.01199     0.09931
             28  C  1 XXZ     0.01205     0.10070
             29  C  1 YYX     0.01186     0.09876
             30  C  1 YYZ     0.01067     0.09330
             31  C  1 ZZX     0.01297     0.10212
             32  C  1 ZZY     0.01017     0.09251
             33  C  1 XYZ     0.00229     0.00371
             34  H  2  S      0.26228     0.22844
             35  H  2  S      0.42419     0.36426
             36  H  2  S      0.19055     0.15379
             37  H  2  S      1.05397     0.26430
             38  H  3  S      0.26228     0.22590
             39  H  3  S      0.42419     0.36330
             40  H  3  S      0.19055     0.15387
             41  H  3  S      1.05397     0.26430
             42  H  4  S      0.26228     0.22926
             43  H  4  S      0.42419     0.36458
             44  H  4  S      0.19055     0.15376
             45  H  4  S      1.05395     0.26429
             46  H  5  S      0.26228     0.22996
             47  H  5  S      0.42419     0.36484
             48  H  5  S      0.19055     0.15374
             49  H  5  S      1.05396     0.26429

          ----- MULLIKEN ATOMIC OVERLAP POPULATIONS -----
          (OFF-DIAGONAL ELEMENTS NEED TO BE MULTIPLIED BY 2)

             1           2           3           4           5

    1   44.1187406
    2  -10.2107118   4.0404786
    3  -10.2107121   2.7004222   4.0404788
    4  -10.2105229   2.7003736   2.7003737   4.0403681
    5  -10.2106869   2.7004161   2.7004162   2.7003671   4.0404635

          TOTAL MULLIKEN AND LOWDIN ATOMIC POPULATIONS
       ATOM         MULL.POP.    CHARGE          LOW.POP.     CHARGE
    1 C             3.276107    2.723893         6.957107   -0.957107
    2 H             1.930979   -0.930979         1.010788   -0.010788
    3 H             1.930979   -0.930979         1.007372   -0.007372
    4 H             1.930960   -0.930960         1.011895   -0.011895
    5 H             1.930976   -0.930976         1.012838   -0.012838

          -------------------------------
          BOND ORDER AND VALENCE ANALYSIS     BOND ORDER THRESHOLD=0.050
          -------------------------------

                   BOND                       BOND                       BOND
  ATOM PAIR DIST  ORDER      ATOM PAIR DIST  ORDER      ATOM PAIR DIST  ORDER
    1   2  1.090 -7.038        1   3  1.090 -7.038        1   4  1.090 -7.038
    1   5  1.090 -7.038        2   3  1.780  2.500        2   4  1.780  2.499
    2   5  1.780  2.500        3   4  1.780  2.499        3   5  1.780  2.500
    4   5  1.780  2.499

                       TOTAL       BONDED        FREE
      ATOM            VALENCE     VALENCE     VALENCE
    1 C               -15.900     -28.151      12.251
    2 H                 1.738       0.461       1.277
    3 H                 1.738       0.461       1.277
    4 H                 1.738       0.461       1.277
    5 H                 1.738       0.461       1.277

          -----------------------------------------
          ATOMIC SPIN DENSITY AT THE NUCLEUS (A.U.)
          -----------------------------------------
                            SPIN DENS    ALPHA DENS     BETA DENS
    1  C            6.0     0.0986054      59.76798      59.66937
    2  H            1.0    -0.0014170       0.21088       0.21230
    3  H            1.0    -0.0014170       0.21088       0.21230
    4  H            1.0    -0.0014171       0.21088       0.21230
    5  H            1.0    -0.0014169       0.21088       0.21230

          ---------------------
          ELECTROSTATIC MOMENTS
          ---------------------

 POINT   1           X           Y           Z (BOHR)    CHARGE
                 0.000001    0.000001    0.000001       -1.00 (A.U.)
         DX          DY          DZ         /D/  (DEBYE)
     0.000026    0.000020    0.000040    0.000052
 ...... END OF PROPERTY EVALUATION ......
 CPU     0: STEP CPU TIME=     0.01 TOTAL CPU TIME=          0.3 (      0.0 MIN)
 TOTAL WALL CLOCK TIME=          0.8 SECONDS, CPU UTILIZATION IS    40.74%
               580000  WORDS OF DYNAMIC MEMORY USED
 EXECUTION OF GAMESS TERMINATED NORMALLY Sat Jan  5 13:35:44 2019
 DDI: 263640 bytes (0.3 MB / 0 MWords) used by master data server.

 ----------------------------------------
 CPU timing information for all processes
 ========================================
 0: 0.280 + 0.52 = 0.332
 1: 0.252 + 0.40 = 0.292
 2: 0.248 + 0.48 = 0.296
 3: 0.264 + 0.28 = 0.292
 ----------------------------------------
 ddikick.x: exited gracefully.
----- accounting info -----
Files used on the master node multivac2 were:
-rw-rw-r-- 1 igorchem igorchem     650 Jan  5 13:35 /home/igorchem/programs/src/metano_an.F05
-rw-rw-r-- 1 igorchem igorchem 1930480 Jan  5 13:35 /home/igorchem/programs/src/metano_an.F10
Sat Jan  5 13:35:47 -03 2019
0.0u 0.0s 0:04.09 0.4% 0+0k 480+16io 3pf+0w
