----- GAMESS execution script 'rungms' -----
This job is running on host multivac2
under operating system Linux at Wed Jan 16 13:54:43 -03 2019
Available scratch disk space (Kbyte units) at beginning of the job is
Filesystem      1K-blocks     Used  Available Use% Mounted on
/dev/sda4      1650447924 73450756 1493136228   5% /
GAMESS temporary binary files will be written to /home/igorchem/programs/src
GAMESS supplementary output files will be written to /home/igorchem/programs/usrsrc
Copying input file metano.inp to your run's scratch directory...

 Distributed Data Interface kickoff program.
 Initiating 1 compute processes on 1 nodes to run the following command:
 /home/igorchem/programs/gamess/gamess.00.x metano 

          ******************************************************
          *         GAMESS VERSION = 11 NOV 2017 (R3)         *
          *             FROM IOWA STATE UNIVERSITY             *
          * M.W.SCHMIDT, K.K.BALDRIDGE, J.A.BOATZ, S.T.ELBERT, *
          *   M.S.GORDON, J.H.JENSEN, S.KOSEKI, N.MATSUNAGA,   *
          *          K.A.NGUYEN, S.J.SU, T.L.WINDUS,           *
          *       TOGETHER WITH M.DUPUIS, J.A.MONTGOMERY       *
          *         J.COMPUT.CHEM.  14, 1347-1363(1993)        *
          **************** 64 BIT LINUX VERSION ****************

  SINCE 1993, STUDENTS AND POSTDOCS WORKING AT IOWA STATE UNIVERSITY
  AND ALSO IN THEIR VARIOUS JOBS AFTER LEAVING ISU HAVE MADE IMPORTANT
  CONTRIBUTIONS TO THE CODE:
     IVANA ADAMOVIC, CHRISTINE AIKENS, YURI ALEXEEV, POOJA ARORA,
     ANDREY ASADCHEV, ROB BELL, PRADIPTA BANDYOPADHYAY, JONATHAN BENTZ,
     BRETT BODE, KURT BRORSEN, CALEB CARLIN, GALINA CHABAN, WEI CHEN,
     CHEOL HO CHOI, PAUL DAY, ALBERT DEFUSCO, NUWAN DESILVA, TIM DUDLEY,
     DMITRI FEDOROV, ALEX FINDLATER, GRAHAM FLETCHER, MARK FREITAG,
     KURT GLAESEMANN, ANASTASIA GUININA,
     DAN KEMP, GRANT MERRILL, NORIYUKI MINEZAWA, JONATHAN MULLIN,
     TAKESHI NAGATA, SEAN NEDD, HEATHER NETZLOFF, BOSILJKA NJEGIC, RYAN OLSON,
     MIKE PAK, BUU PHAM,
     SPENCER PRUITT, LUKE ROSKOP, JIM SHOEMAKER, LYUDMILA SLIPCHENKO,
     TONY SMITH, SAROM SOK LEANG, JIE SONG, TETSUYA TAKETSUGU, SIMON WEBB,
     PENG XU, SOOHAENG YOO, FEDERICO ZAHARIEV

  ADDITIONAL CODE HAS BEEN PROVIDED BY COLLABORATORS IN OTHER GROUPS:
     IOWA STATE UNIVERSITY:
          JOE IVANIC, AARON WEST, LAIMUTIS BYTAUTAS, KLAUS RUEDENBERG
     UNIVERSITY OF TOKYO: KIMIHIKO HIRAO, TAKAHITO NAKAJIMA,
          TAKAO TSUNEDA, MUNEAKI KAMIYA, SUSUMU YANAGISAWA,
          KIYOSHI YAGI, MAHITO CHIBA, SEIKEN TOKURA, NAOAKI KAWAKAMI
     UNIVERSITY OF AARHUS: FRANK JENSEN
     UNIVERSITY OF IOWA: VISVALDAS KAIRYS, HUI LI
     NATIONAL INST. OF STANDARDS AND TECHNOLOGY: WALT STEVENS, DAVID GARMER
     UNIVERSITY OF PISA: BENEDETTA MENNUCCI, JACOPO TOMASI
     UNIVERSITY OF MEMPHIS: HENRY KURTZ, PRAKASHAN KORAMBATH
     UNIVERSITY OF ALBERTA: TOBY ZENG, MARIUSZ KLOBUKOWSKI
     UNIVERSITY OF NEW ENGLAND: MARK SPACKMAN
     MIE UNIVERSITY: HIROAKI UMEDA
     NAT. INST. OF ADVANCED INDUSTRIAL SCIENCE AND TECHNOLOGY: KAZUO KITAURA
     MICHIGAN STATE UNIVERSITY:
          KAROL KOWALSKI, MARTA WLOCH, JEFFREY GOUR, JESSE LUTZ,
          WEI LI, PIOTR PIECUCH
     UNIVERSITY OF SILESIA: MONIKA MUSIAL, STANISLAW KUCHARSKI
     FACULTES UNIVERSITAIRES NOTRE-DAME DE LA PAIX:
          OLIVIER QUINET, BENOIT CHAMPAGNE
     UNIVERSITY OF CALIFORNIA - SANTA BARBARA: BERNARD KIRTMAN
     INSTITUTE FOR MOLECULAR SCIENCE:
          KAZUYA ISHIMURA, MICHIO KATOUDA, AND SHIGERU NAGASE
     UNIVERSITY OF NOTRE DAME: ANNA POMOGAEVA, DAN CHIPMAN
     KYUSHU UNIVERSITY:
          HARUYUKI NAKANO,
          FENG LONG GU, JACEK KORCHOWIEC, MARCIN MAKOWSKI, AND YURIKO AOKI,
          HIROTOSHI MORI AND EISAKU MIYOSHI
     PENNSYLVANIA STATE UNIVERSITY:
          TZVETELIN IORDANOV, CHET SWALINA, JONATHAN SKONE,
          SHARON HAMMES-SCHIFFER
     WASEDA UNIVERSITY:
          MASATO KOBAYASHI, TOMOKO AKAMA, TSUGUKI TOUMA,
          TAKESHI YOSHIKAWA, YASUHIRO IKABATA, JUNJI SEINO,
          YUYA NAKAJIMA, HIROMI NAKAI
     NANJING UNIVERSITY: SHUHUA LI
     UNIVERSITY OF NEBRASKA:
          PEIFENG SU, DEJUN SI, NANDUN THELLAMUREGE, YALI WANG, HUI LI
     UNIVERSITY OF ZURICH: ROBERTO PEVERATI, KIM BALDRIDGE
     N. COPERNICUS UNIVERSITY AND JACKSON STATE UNIVERSITY:
          MARIA BARYSZ
     UNIVERSITY OF COPENHAGEN: Jimmy Kromann, CASPER STEINMANN
     TOKYO INSTITUTE OF TECHNOLOGY: HIROYA NAKATA
     NAGOYA UNIVERSITY: YOSHIO NISHIMOTO, STEPHAN IRLE
     MOSCOW STATE UNIVERSITY: VLADIMIR MIRONOV

 EXECUTION OF GAMESS BEGUN Wed Jan 16 13:54:43 2019

            ECHO OF THE FIRST FEW INPUT CARDS -
 INPUT CARD>! ================================================================              
 INPUT CARD>! This file was generated by Gabedit                                            
 INPUT CARD>! ================================================================              
 INPUT CARD> $SYSTEM MWORDS=20 $END                                                         
 INPUT CARD> $CONTRL RUNTYP=Energy $END                                                     
 INPUT CARD> $CONTRL SCFTYP=RHF $END                                                        
 INPUT CARD> $CONTRL ICHARG=0  MULT=1 $END                                                  
 INPUT CARD> $BASIS GBASIS=N311 NGAUSS=6 $END                                               
 INPUT CARD> $BASIS NDFUNC=1 NFFUNC=1 $END                                                  
 INPUT CARD> $BASIS DIFFSP=.TRUE. DIFFS=.TRUE. $END                                         
 INPUT CARD> $SCF DIRSCF=.TRUE. $END                                                        
 INPUT CARD> $DATA                                                                          
 INPUT CARD>Molecule specification                                                          
 INPUT CARD>C1                                                                              
 INPUT CARD>C  6.000000 0.000001 0.000001 0.000001                                          
 INPUT CARD>H  1.000000 -0.847018 -0.618048 0.297781                                        
 INPUT CARD>H  1.000000 0.612664 -0.544903 -0.718207                                        
 INPUT CARD>H  1.000000 0.598776 0.243097 0.877770                                          
 INPUT CARD>H  1.000000 -0.364422 0.919853 -0.457346                                        
 INPUT CARD> $END                                                                           
   20000000 WORDS OF MEMORY AVAILABLE

     BASIS OPTIONS
     -------------
     GBASIS=N311         IGAUSS=       6      POLAR=POPN311 
     NDFUNC=       1     NFFUNC=       1     DIFFSP=       T
     NPFUNC=       0      DIFFS=       T     BASNAM=        


     RUN TITLE
     ---------
 Molecule specification                                                          

 THE POINT GROUP OF THE MOLECULE IS C1      
 THE ORDER OF THE PRINCIPAL AXIS IS     0

 ATOM      ATOMIC                      COORDINATES (BOHR)
           CHARGE         X                   Y                   Z
 C           6.0     0.0000018897        0.0000018897        0.0000018897
 H           1.0    -1.6006319267       -1.1679413673        0.5627244943
 H           1.0     1.1577670825       -1.0297173599       -1.3572144325
 H           1.0     1.1315225680        0.4593867184        1.6587447802
 H           1.0    -0.6886577239        1.7382701190       -0.8642586216

          INTERNUCLEAR DISTANCES (ANGS.)
          ------------------------------

                1 C          2 H          3 H          4 H          5 H     

   1 C       0.0000000    1.0899994 *  1.0899996 *  1.0900026 *  1.0899991 *
   2 H       1.0899994 *  0.0000000    1.7799588 *  1.7799658 *  1.7799593 *
   3 H       1.0899996 *  1.7799588 *  0.0000000    1.7799661 *  1.7799595 *
   4 H       1.0900026 *  1.7799658 *  1.7799661 *  0.0000000    1.7799674 *
   5 H       1.0899991 *  1.7799593 *  1.7799595 *  1.7799674 *  0.0000000  

  * ... LESS THAN  3.000


     ATOMIC BASIS SET
     ----------------
 THE CONTRACTED PRIMITIVE FUNCTIONS HAVE BEEN UNNORMALIZED
 THE CONTRACTED BASIS FUNCTIONS ARE NOW NORMALIZED TO UNITY

  SHELL TYPE  PRIMITIVE        EXPONENT          CONTRACTION COEFFICIENT(S)

 C         

      1   S       1          4563.2400000    0.001966650249
      1   S       2           682.0240000    0.015230601932
      1   S       3           154.9730000    0.076126909656
      1   S       4            44.4553000    0.260801033080
      1   S       5            13.0290000    0.616462078191
      1   S       6             1.8277300    0.221006028032

      2   L       7            20.9642000    0.114660080729    0.040248692673
      2   L       8             4.8033100    0.919999647749    0.237593956746
      2   L       9             1.4593300   -0.003030682134    0.815853851473

      3   L      10             0.4834560    1.000000000000    1.000000000000

      4   L      11             0.1455850    1.000000000000    1.000000000000

      5   L      12             0.0438000    1.000000000000    1.000000000000

      6   D      13             0.6260000    1.000000000000

      7   F      14             0.8000000    1.000000000000

 H         

      8   S      15            33.8650000    0.025493814541
      8   S      16             5.0947900    0.190373108582
      8   S      17             1.1587900    0.852161486043

      9   S      18             0.3258400    1.000000000000

     10   S      19             0.1027410    1.000000000000

     11   S      20             0.0360000    1.000000000000

 H         

     12   S      21            33.8650000    0.025493814541
     12   S      22             5.0947900    0.190373108582
     12   S      23             1.1587900    0.852161486043

     13   S      24             0.3258400    1.000000000000

     14   S      25             0.1027410    1.000000000000

     15   S      26             0.0360000    1.000000000000

 H         

     16   S      27            33.8650000    0.025493814541
     16   S      28             5.0947900    0.190373108582
     16   S      29             1.1587900    0.852161486043

     17   S      30             0.3258400    1.000000000000

     18   S      31             0.1027410    1.000000000000

     19   S      32             0.0360000    1.000000000000

 H         

     20   S      33            33.8650000    0.025493814541
     20   S      34             5.0947900    0.190373108582
     20   S      35             1.1587900    0.852161486043

     21   S      36             0.3258400    1.000000000000

     22   S      37             0.1027410    1.000000000000

     23   S      38             0.0360000    1.000000000000

 TOTAL NUMBER OF BASIS SET SHELLS             =   23
 NUMBER OF CARTESIAN GAUSSIAN BASIS FUNCTIONS =   49
 NUMBER OF ELECTRONS                          =   10
 CHARGE OF MOLECULE                           =    0
 SPIN MULTIPLICITY                            =    1
 NUMBER OF OCCUPIED ORBITALS (ALPHA)          =    5
 NUMBER OF OCCUPIED ORBITALS (BETA )          =    5
 TOTAL NUMBER OF ATOMS                        =    5
 THE NUCLEAR REPULSION ENERGY IS       13.4353882208

     $CONTRL OPTIONS
     ---------------
 SCFTYP=RHF          RUNTYP=ENERGY       EXETYP=RUN     
 MPLEVL=       0     CITYP =NONE         CCTYP =NONE         VBTYP =NONE    
 DFTTYP=NONE         TDDFT =NONE    
 MULT  =       1     ICHARG=       0     NZVAR =       0     COORD =UNIQUE  
 PP    =NONE         RELWFN=NONE         LOCAL =NONE         NUMGRD=       F
 ISPHER=      -1     NOSYM =       0     MAXIT =      30     UNITS =ANGS    
 PLTORB=       F     MOLPLT=       F     AIMPAC=       F     FRIEND=        
 NPRINT=       7     IREST =       0     GEOM  =INPUT   
 NORMF =       0     NORMP =       0     ITOL  =      20     ICUT  =       9
 INTTYP=BEST         GRDTYP=BEST         QMTTOL= 1.0E-06

     $SYSTEM OPTIONS
     ---------------
  REPLICATED MEMORY=    20000000 WORDS (ON EVERY NODE).
 DISTRIBUTED MEMDDI=           0 MILLION WORDS IN AGGREGATE,
 MEMDDI DISTRIBUTED OVER   1 PROCESSORS IS           0 WORDS/PROCESSOR.
 TOTAL MEMORY REQUESTED ON EACH PROCESSOR=    20000000 WORDS.
 TIMLIM=      525600.00 MINUTES, OR     365.0 DAYS.
 PARALL= F  BALTYP=  DLB     KDIAG=    0  COREFL= F
 MXSEQ2=     300 MXSEQ3=     150  mem10=         0

          ----------------
          PROPERTIES INPUT
          ----------------

     MOMENTS            FIELD           POTENTIAL          DENSITY
 IEMOM =       1   IEFLD =       0   IEPOT =       0   IEDEN =       0
 WHERE =COMASS     WHERE =NUCLEI     WHERE =NUCLEI     WHERE =NUCLEI  
 OUTPUT=BOTH       OUTPUT=BOTH       OUTPUT=BOTH       OUTPUT=BOTH    
 IEMINT=       0   IEFINT=       0                     IEDINT=       0
                                                       MORB  =       0
          EXTRAPOLATION IN EFFECT
          SOSCF IN EFFECT
 ORBITAL PRINTING OPTION: NPREO=     1    49     2     1

     -------------------------------
     INTEGRAL TRANSFORMATION OPTIONS
     -------------------------------
     NWORD  =            0
     CUTOFF = 1.0E-09     MPTRAN =       0
     DIRTRF =       T     AOINTS =DUP     

          ----------------------
          INTEGRAL INPUT OPTIONS
          ----------------------
 NOPK  =       1 NORDER=       0 SCHWRZ=       T

     ------------------------------------------
     THE POINT GROUP IS C1 , NAXIS= 0, ORDER= 1
     ------------------------------------------

     DIMENSIONS OF THE SYMMETRY SUBSPACES ARE
 A   =   49

 ..... DONE SETTING UP THE RUN .....
 STEP CPU TIME =     0.01 TOTAL CPU TIME =          0.0 (      0.0 MIN)
 TOTAL WALL CLOCK TIME=          0.0 SECONDS, CPU UTILIZATION IS    50.00%

          ********************
          1 ELECTRON INTEGRALS
          ********************
 ...... END OF ONE-ELECTRON INTEGRALS ......
 STEP CPU TIME =     0.00 TOTAL CPU TIME =          0.0 (      0.0 MIN)
 TOTAL WALL CLOCK TIME=          0.0 SECONDS, CPU UTILIZATION IS    50.00%

          -------------
          GUESS OPTIONS
          -------------
          GUESS =HUCKEL            NORB  =       0          NORDER=       0
          MIX   =       F          PRTMO =       F          PUNMO =       F
          TOLZ  = 1.0E-08          TOLE  = 1.0E-05
          SYMDEN=       F          PURIFY=       F

 INITIAL GUESS ORBITALS GENERATED BY HUCKEL   ROUTINE.
 HUCKEL GUESS REQUIRES     21450 WORDS.

 SYMMETRIES FOR INITIAL GUESS ORBITALS FOLLOW.   BOTH SET(S).
     5 ORBITALS ARE OCCUPIED (    1 CORE ORBITALS).
     2=A        3=A        4=A        5=A        6=A        7=A        8=A   
     9=A       10=A       11=A       12=A       13=A       14=A       15=A   
 ...... END OF INITIAL ORBITAL SELECTION ......
 STEP CPU TIME =     0.00 TOTAL CPU TIME =          0.0 (      0.0 MIN)
 TOTAL WALL CLOCK TIME=          0.0 SECONDS, CPU UTILIZATION IS    50.00%

                    ----------------------
                    AO INTEGRAL TECHNOLOGY
                    ----------------------
     S,P,L SHELL ROTATED AXIS INTEGRALS, REPROGRAMMED BY
        KAZUYA ISHIMURA (IMS) AND JOSE SIERRA (SYNSTAR).
     S,P,D,L SHELL ROTATED AXIS INTEGRALS PROGRAMMED BY
        KAZUYA ISHIMURA (INSTITUTE FOR MOLECULAR SCIENCE).
     S,P,D,F,G SHELL TO TOTAL QUARTET ANGULAR MOMENTUM SUM 5,
        ERIC PROGRAM BY GRAHAM FLETCHER (ELORET AND NASA ADVANCED
        SUPERCOMPUTING DIVISION, AMES RESEARCH CENTER).
     S,P,D,F,G,L SHELL GENERAL RYS QUADRATURE PROGRAMMED BY
        MICHEL DUPUIS (PACIFIC NORTHWEST NATIONAL LABORATORY).

          --------------------
          2 ELECTRON INTEGRALS
          --------------------

 DIRECT SCF METHOD SKIPS INTEGRAL STORAGE ON DISK.
 DIRECT TRANSFORMATION SKIPS AO INTEGRAL STORAGE ON DISK.
  ...... END OF TWO-ELECTRON INTEGRALS .....
 STEP CPU TIME =     0.01 TOTAL CPU TIME =          0.0 (      0.0 MIN)
 TOTAL WALL CLOCK TIME=          0.0 SECONDS, CPU UTILIZATION IS    66.67%

          --------------------------
                 RHF SCF CALCULATION
          --------------------------

     NUCLEAR ENERGY =        13.4353882208
     MAXIT =   30     NPUNCH=    2
     EXTRAP=T  DAMP=F  SHIFT=F  RSTRCT=F  DIIS=F  DEM=F  SOSCF=T
     DENSITY MATRIX CONV=  2.00E-05
     SOSCF WILL OPTIMIZE     220 ORBITAL ROTATIONS, SOGTOL=   0.250
     MEMORY REQUIRED FOR RHF ITERS=     73025 WORDS.

 DIRECT SCF CALCULATION, SCHWRZ=T   FDIFF=T,  DIRTHR=  0.00E+00 NITDIR=10
 SCHWARZ INEQUALITY OVERHEAD:      1225 INTEGRALS, T=        0.00

                                                                                   NONZERO     BLOCKS
 ITER EX DEM     TOTAL ENERGY        E CHANGE  DENSITY CHANGE     ORB. GRAD      INTEGRALS    SKIPPED
   1  0  0      -40.0818129087   -40.0818129087   0.149580395   0.000000000         615572          0
          ---------------START SECOND ORDER SCF---------------
   2  1  0      -40.2002441564    -0.1184312477   0.026962311   0.021143307         615572          0
   3  2  0      -40.2052181973    -0.0049740409   0.022805194   0.011882122         615572          0
   4  3  0      -40.2059095177    -0.0006913204   0.003883258   0.001675928         615572          0
   5  4  0      -40.2059230106    -0.0000134930   0.000653509   0.000193130         615572          0
   6  5  0      -40.2059234144    -0.0000004037   0.000201372   0.000030895         615551         21
   7  6  0      -40.2059234329    -0.0000000186   0.000023642   0.000009854         615527         45
   8  7  0      -40.2059234336    -0.0000000007   0.000002854   0.000001692         615431         87
   9  8  0      -40.2059234336     0.0000000000   0.000001062   0.000000206         614829        335

          -----------------
          DENSITY CONVERGED
          -----------------
     TIME TO FORM FOCK OPERATORS=       0.3 SECONDS (       0.0 SEC/ITER)
     FOCK TIME ON FIRST ITERATION=       0.0, LAST ITERATION=       0.0
     TIME TO SOLVE SCF EQUATIONS=       0.0 SECONDS (       0.0 SEC/ITER)

 FINAL RHF ENERGY IS      -40.2059234336 AFTER   9 ITERATIONS

          ------------
          EIGENVECTORS
          ------------

                      1          2          3          4          5
                  -11.2093    -0.9432    -0.5451    -0.5451    -0.5451
                     A          A          A          A          A   
    1  C  1  S    0.563394  -0.103256  -0.000000  -0.000000  -0.000000
    2  C  1  S    0.466086  -0.167268  -0.000000  -0.000000  -0.000000
    3  C  1  X    0.000000  -0.000000   0.104696   0.030038   0.159676
    4  C  1  Y    0.000000  -0.000000  -0.047828   0.187237  -0.003863
    5  C  1  Z    0.000000  -0.000001   0.155278   0.037418  -0.108851
    6  C  1  S    0.005074   0.431667   0.000001   0.000001   0.000000
    7  C  1  X   -0.000000  -0.000001   0.156352   0.044859   0.238458
    8  C  1  Y   -0.000000  -0.000000  -0.071426   0.279617  -0.005769
    9  C  1  Z   -0.000000  -0.000001   0.231890   0.055880  -0.162558
   10  C  1  S    0.001682   0.344627   0.000001   0.000001   0.000000
   11  C  1  X    0.000000  -0.000000   0.123235   0.035358   0.187951
   12  C  1  Y    0.000000  -0.000000  -0.056297   0.220392  -0.004547
   13  C  1  Z    0.000000  -0.000000   0.182774   0.044045  -0.128126
   14  C  1  S   -0.000153  -0.015039  -0.000000  -0.000000   0.000000
   15  C  1  X   -0.000000   0.000000  -0.015872  -0.004554  -0.024207
   16  C  1  Y   -0.000000   0.000000   0.007251  -0.028385   0.000586
   17  C  1  Z   -0.000000   0.000000  -0.023540  -0.005673   0.016502
   18  C  1 XX   -0.000827   0.017812   0.005853  -0.016036  -0.010607
   19  C  1 YY   -0.000827   0.017812  -0.025669   0.008942  -0.004039
   20  C  1 ZZ   -0.000827   0.017812   0.019816   0.007094   0.014646
   21  C  1 XY   -0.000000  -0.000000   0.018041  -0.014956  -0.032456
   22  C  1 XZ   -0.000000   0.000000   0.019545   0.035650  -0.008940
   23  C  1 YZ   -0.000000  -0.000000   0.022485  -0.013569   0.023975
   24  C  1 XXX  -0.000053  -0.002633   0.008146   0.004115   0.014601
   25  C  1 YYY   0.000099   0.004917  -0.006648   0.016984  -0.000208
   26  C  1 ZZZ   0.000059   0.002946   0.014571   0.005295  -0.009050
   27  C  1 XXY  -0.000147  -0.007329  -0.000969   0.009953   0.001489
   28  C  1 XXZ   0.000066   0.003309   0.007493   0.002095  -0.006739
   29  C  1 YYX  -0.000139  -0.006927   0.005327  -0.000035   0.008439
   30  C  1 YYZ  -0.000146  -0.007262   0.007529  -0.000867  -0.005354
   31  C  1 ZZX   0.000210   0.010460   0.007052   0.001202   0.007521
   32  C  1 ZZY   0.000015   0.000732  -0.000760   0.008946  -0.002069
   33  C  1 XYZ   0.000262   0.013056  -0.000347  -0.000644   0.000782
   34  H  2  S    0.000308   0.080838  -0.010553  -0.106535  -0.135420
   35  H  2  S   -0.000036   0.075838  -0.014675  -0.148141  -0.188307
   36  H  2  S   -0.000215   0.001674  -0.006726  -0.067896  -0.086305
   37  H  2  S    0.000069   0.005517  -0.003512  -0.035451  -0.045063
   38  H  3  S    0.000308   0.080837  -0.017465  -0.090536   0.145937
   39  H  3  S   -0.000036   0.075838  -0.024286  -0.125895   0.202932
   40  H  3  S   -0.000215   0.001674  -0.011131  -0.057700   0.093008
   41  H  3  S    0.000069   0.005517  -0.005812  -0.030128   0.048563
   42  H  4  S    0.000308   0.080837   0.153515   0.078943  -0.000717
   43  H  4  S   -0.000036   0.075837   0.213470   0.109774  -0.000998
   44  H  4  S   -0.000215   0.001674   0.097837   0.050312  -0.000457
   45  H  4  S    0.000069   0.005517   0.051085   0.026270  -0.000239
   46  H  5  S    0.000308   0.080838  -0.125496   0.118128  -0.009800
   47  H  5  S   -0.000036   0.075838  -0.174508   0.164262  -0.013627
   48  H  5  S   -0.000215   0.001674  -0.079980   0.075285  -0.006246
   49  H  5  S    0.000069   0.005517  -0.041761   0.039309  -0.003261

                      6          7          8          9         10
                    0.0420     0.0784     0.0784     0.0784     0.1532
                     A          A          A          A          A   
    1  C  1  S   -0.019123   0.000000   0.000000   0.000000   0.000000
    2  C  1  S   -0.030318   0.000000   0.000000   0.000000   0.000000
    3  C  1  X   -0.000000  -0.017259   0.000325  -0.025699   0.014884
    4  C  1  Y   -0.000000  -0.000064  -0.030956  -0.000348  -0.001177
    5  C  1  Z   -0.000000  -0.025701  -0.000141   0.017259  -0.009900
    6  C  1  S    0.112756  -0.000000  -0.000000  -0.000000  -0.000000
    7  C  1  X    0.000000  -0.058855   0.001107  -0.087636  -0.006972
    8  C  1  Y    0.000000  -0.000219  -0.105564  -0.001187   0.000551
    9  C  1  Z    0.000000  -0.087643  -0.000480   0.058854   0.004637
   10  C  1  S    0.135579  -0.000000   0.000000  -0.000000  -0.000000
   11  C  1  X   -0.000001   0.065138  -0.001226   0.096991   0.085571
   12  C  1  Y   -0.000001   0.000242   0.116833   0.001313  -0.006768
   13  C  1  Z   -0.000001   0.096998   0.000531  -0.065136  -0.056913
   14  C  1  S    6.100302   0.000014   0.000004   0.000000   0.000002
   15  C  1  X   -0.000007  -0.699090   0.013152  -1.040943  -3.091340
   16  C  1  Y   -0.000006  -0.002601  -1.253896  -0.014096   0.244489
   17  C  1  Z   -0.000010  -1.041028  -0.005699   0.699068   2.056032
   18  C  1 XX    0.012027  -0.000381   0.003633   0.002426  -0.008283
   19  C  1 YY    0.012027   0.004931  -0.003313   0.000813  -0.004210
   20  C  1 ZZ    0.012027  -0.004550  -0.000320  -0.003239   0.012493
   21  C  1 XY   -0.000000  -0.003048   0.003919   0.007186  -0.026541
   22  C  1 XZ    0.000000  -0.006083  -0.006525   0.001705  -0.008430
   23  C  1 YZ   -0.000000  -0.003976   0.004252  -0.005129   0.021147
   24  C  1 XXX  -0.000348   0.001624  -0.000886   0.001597   0.004393
   25  C  1 YYY   0.000649   0.001157   0.001730  -0.000052  -0.000195
   26  C  1 ZZZ   0.000389   0.001197  -0.000863  -0.001584  -0.001650
   27  C  1 XXY  -0.000968  -0.000780  -0.000119  -0.000876   0.002420
   28  C  1 XXZ   0.000437   0.000074  -0.000167   0.000683  -0.005099
   29  C  1 YYX  -0.000915   0.000134   0.000786  -0.000237   0.005285
   30  C  1 YYZ  -0.000959   0.000441   0.001337   0.000018  -0.002623
   31  C  1 ZZX   0.001381  -0.000889   0.000376   0.000216   0.003759
   32  C  1 ZZY   0.000097  -0.000767   0.000353   0.000974  -0.003340
   33  C  1 XYZ   0.001724   0.000259   0.000289  -0.000392   0.001314
   34  H  2  S   -0.000493   0.004816   0.012934   0.018644  -0.036500
   35  H  2  S    0.028072  -0.008130  -0.021838  -0.031479   0.068338
   36  H  2  S   -0.387020   0.118795   0.319085   0.459950  -0.903840
   37  H  2  S   -1.559427  -0.973812  -2.615615  -3.770307  -3.916891
   38  H  3  S   -0.000493   0.005444   0.011802  -0.019214   0.041528
   39  H  3  S    0.028072  -0.009191  -0.019926   0.032441  -0.077753
   40  H  3  S   -0.387020   0.134300   0.291147  -0.474002   1.028361
   41  H  3  S   -1.559426  -1.100904  -2.386605   3.885497   4.456516
   42  H  4  S   -0.000493  -0.022623  -0.005124  -0.000222  -0.000156
   43  H  4  S    0.028072   0.038196   0.008652   0.000375   0.000292
   44  H  4  S   -0.387016  -0.558094  -0.126418  -0.005483  -0.003856
   45  H  4  S   -1.559402   4.574815   1.036263   0.044948  -0.016711
   46  H  5  S   -0.000493   0.012363  -0.019612   0.000792  -0.004873
   47  H  5  S    0.028072  -0.020873   0.033112  -0.001337   0.009123
   48  H  5  S   -0.387020   0.304991  -0.483818   0.019536  -0.120665
   49  H  5  S   -1.559424  -2.500104   3.965955  -0.160138  -0.522915

                     11         12         13         14         15
                    0.1532     0.1532     0.1889     0.3090     0.3090
                     A          A          A          A          A   
    1  C  1  S    0.000000   0.000000   0.037524  -0.000001  -0.000000
    2  C  1  S    0.000000   0.000000   0.066255  -0.000001  -0.000000
    3  C  1  X    0.002023   0.009762  -0.000000   0.086723   0.137865
    4  C  1  Y    0.017776  -0.001888   0.000000   0.043136  -0.035505
    5  C  1  Z    0.000927   0.014902  -0.000000   0.131159  -0.079479
    6  C  1  S   -0.000001  -0.000001  -0.148104   0.000001   0.000000
    7  C  1  X   -0.000947  -0.004572   0.000001   0.037499   0.059613
    8  C  1  Y   -0.008326   0.000884   0.000001   0.018653  -0.015352
    9  C  1  Z   -0.000434  -0.006979   0.000001   0.056714  -0.034367
   10  C  1  S    0.000001   0.000002  -0.586275   0.000032   0.000000
   11  C  1  X    0.011628   0.056121  -0.000003   0.836685   1.330095
   12  C  1  Y    0.102194  -0.010856  -0.000002   0.416172  -0.342542
   13  C  1  Z    0.005331   0.085671  -0.000004   1.265401  -0.766803
   14  C  1  S    0.000036   0.000083  14.606351   0.000115   0.000004
   15  C  1  X   -0.420087  -2.027464  -0.000008  -0.598504  -0.951457
   16  C  1  Y   -3.691867   0.392168  -0.000009  -0.297701   0.245031
   17  C  1  Z   -0.192610  -3.095020  -0.000011  -0.905176   0.548518
   18  C  1 XX   -0.014508   0.003094   0.000823   0.000474   0.001233
   19  C  1 YY    0.010421  -0.020332   0.000823   0.003193   0.001541
   20  C  1 ZZ    0.004086   0.017237   0.000823  -0.003669  -0.002774
   21  C  1 XY   -0.015895   0.013720  -0.000000  -0.001595   0.004835
   22  C  1 XZ    0.027105   0.020801  -0.000000  -0.006240   0.002258
   23  C  1 YZ   -0.013158   0.016833  -0.000000  -0.002219  -0.005112
   24  C  1 XXX   0.003172   0.000980   0.002399   0.019277   0.030858
   25  C  1 YYY   0.005740  -0.004307  -0.004480   0.008816  -0.008040
   26  C  1 ZZZ   0.003302   0.005565  -0.002685   0.030066  -0.017629
   27  C  1 XXY   0.006040   0.001843   0.006677   0.005201  -0.002993
   28  C  1 XXZ   0.000609   0.004082  -0.003015   0.013780  -0.008962
   29  C  1 YYX  -0.001881   0.002682   0.006312   0.008840   0.014847
   30  C  1 YYZ  -0.004109   0.003406   0.006616   0.013142  -0.008143
   31  C  1 ZZX  -0.000345   0.005800  -0.009530   0.009770   0.014451
   32  C  1 ZZY   0.004098   0.002040  -0.000667   0.005092  -0.004427
   33  C  1 XYZ  -0.000907  -0.000737  -0.011896  -0.000278   0.000365
   34  H  2  S   -0.030581  -0.006557  -0.013588   0.012875   0.024988
   35  H  2  S    0.057258   0.012279   0.179633   0.013106   0.025432
   36  H  2  S   -0.757287  -0.162392  -1.386824   1.006804   1.953980
   37  H  2  S   -3.281773  -0.703714  -2.650502  -1.186593  -2.302821
   38  H  3  S   -0.022432  -0.009091  -0.013588   0.013616  -0.033929
   39  H  3  S    0.042000   0.017022   0.179633   0.013860  -0.034532
   40  H  3  S   -0.555495  -0.225123  -1.386824   1.064738  -2.653074
   41  H  3  S   -2.407283  -0.975563  -2.650502  -1.254869   3.126720
   42  H  4  S    0.015622   0.045457  -0.013588  -0.037439  -0.000876
   43  H  4  S   -0.029249  -0.085109   0.179634  -0.038104  -0.000892
   44  H  4  S    0.386848   1.125655  -1.386818  -2.927583  -0.068504
   45  H  4  S    1.676450   4.878135  -2.650488   3.450178   0.080731
   46  H  5  S    0.037391  -0.029809  -0.013588   0.010945   0.009816
   47  H  5  S   -0.070007   0.055813   0.179633   0.011142   0.009991
   48  H  5  S    0.925917  -0.738173  -1.386823   0.855927   0.767596
   49  H  5  S    4.012579  -3.198921  -2.650499  -1.008775  -0.904633

                     16         17         18         19         20
                    0.3090     0.3768     0.5537     0.5537     0.5537
                     A          A          A          A          A   
    1  C  1  S   -0.000000  -0.048861   0.000000  -0.000000  -0.000000
    2  C  1  S   -0.000000  -0.098393  -0.000000  -0.000000   0.000000
    3  C  1  X    0.007533  -0.000001  -0.007079   0.000401   0.004719
    4  C  1  Y    0.153176  -0.000001  -0.000294  -0.008507   0.000282
    5  C  1  Z   -0.055359  -0.000001   0.004727   0.000072   0.007084
    6  C  1  S    0.000000  -0.006802  -0.000000  -0.000000   0.000001
    7  C  1  X    0.003258   0.000000   0.062573  -0.003549  -0.041713
    8  C  1  Y    0.066234  -0.000000   0.002601   0.075199  -0.002495
    9  C  1  Z   -0.023937   0.000000  -0.041783  -0.000633  -0.062624
   10  C  1  S    0.000004   4.408105   0.000001   0.000008  -0.000029
   11  C  1  X    0.072680  -0.000016  -1.251598   0.070985   0.834362
   12  C  1  Y    1.477817  -0.000011  -0.052034  -1.504160   0.049912
   13  C  1  Z   -0.534091  -0.000022   0.835753   0.012656   1.252623
   14  C  1  S    0.000004  14.954585   0.000003   0.000030  -0.000076
   15  C  1  X   -0.051992  -0.000023   1.507400  -0.085492  -1.004890
   16  C  1  Y   -1.057126  -0.000019   0.062669   1.811580  -0.060114
   17  C  1  Z    0.382050  -0.000033  -1.006564  -0.015242  -1.508636
   18  C  1 XX    0.003354  -0.064404  -0.006355  -0.009082  -0.000698
   19  C  1 YY   -0.003424  -0.064404  -0.001896   0.008822   0.012216
   20  C  1 ZZ    0.000070  -0.064404   0.008251   0.000259  -0.011517
   21  C  1 XY    0.005065  -0.000000  -0.018407  -0.009738  -0.007469
   22  C  1 XZ   -0.003424  -0.000000  -0.003891   0.016136  -0.015929
   23  C  1 YZ    0.003104  -0.000000   0.012763  -0.011378  -0.009686
   24  C  1 XXX   0.002505  -0.001366  -0.013447  -0.002968   0.006695
   25  C  1 YYY   0.034923   0.002550  -0.000871  -0.017026  -0.004309
   26  C  1 ZZZ  -0.011760   0.001528   0.006675  -0.003440   0.015172
   27  C  1 XXY   0.016221  -0.003802  -0.004091  -0.011127   0.003652
   28  C  1 XXZ  -0.005814   0.001716   0.008875  -0.000692   0.008726
   29  C  1 YYX   0.000244  -0.003594  -0.009920   0.003832   0.005326
   30  C  1 YYZ  -0.006797  -0.003767   0.006222   0.005672   0.006968
   31  C  1 ZZX   0.000258   0.005426  -0.008059   0.002193   0.009704
   32  C  1 ZZY   0.015475   0.000380   0.003762  -0.009319   0.003565
   33  C  1 XYZ  -0.000095   0.006773  -0.001625   0.001224  -0.001136
   34  H  2  S    0.024785  -0.041359  -0.056399  -0.036724   0.015330
   35  H  2  S    0.025226   0.029754  -1.282656  -0.835192   0.348654
   36  H  2  S    1.938115  -3.576203   1.291030   0.840637  -0.350908
   37  H  2  S   -2.284124  -2.027185   1.271374   0.827844  -0.345578
   38  H  3  S    0.008243  -0.041359   0.056296  -0.035913   0.017479
   39  H  3  S    0.008390   0.029754   1.280305  -0.816767   0.397520
   40  H  3  S    0.644605  -3.576200  -1.288666   0.822092  -0.400093
   41  H  3  S   -0.759687  -2.027184  -1.269044   0.809580  -0.394015
   42  H  4  S    0.001443  -0.041359   0.001198   0.013122  -0.067756
   43  H  4  S    0.001469   0.029751   0.027235   0.298434  -1.540950
   44  H  4  S    0.112862  -3.576120  -0.027414  -0.300391   1.551026
   45  H  4  S   -0.133010  -2.027151  -0.026995  -0.295809   1.527409
   46  H  5  S   -0.034472  -0.041359  -0.001094   0.059515   0.034946
   47  H  5  S   -0.035085   0.029753  -0.024884   1.353527   0.794771
   48  H  5  S   -2.695590  -3.576192   0.025045  -1.362369  -0.799934
   49  H  5  S    3.176820  -2.027178   0.024664  -1.341630  -0.787779

                     21         22         23         24         25
                    0.8609     0.8794     0.8794     0.8794     0.9612
                     A          A          A          A          A   
    1  C  1  S    0.011617   0.000000   0.000000  -0.000000   0.112166
    2  C  1  S    0.032424  -0.000001  -0.000000  -0.000000   0.135931
    3  C  1  X   -0.000012  -0.132732  -0.216991   0.023302   0.000002
    4  C  1  Y   -0.000006  -0.079036   0.022372  -0.241865   0.000001
    5  C  1  Z   -0.000016  -0.203424   0.132891   0.078767   0.000002
    6  C  1  S    0.386746  -0.000051  -0.000002   0.000000  -2.011238
    7  C  1  X   -0.000051  -0.597559  -0.976897   0.104907   0.000007
    8  C  1  Y   -0.000029  -0.355821   0.100720  -1.088879   0.000003
    9  C  1  Z   -0.000071  -0.915818   0.598279   0.354609   0.000010
   10  C  1  S   -2.859348   0.000291   0.000014  -0.000002   6.374831
   11  C  1  X    0.000106   1.067572   1.745278  -0.187421  -0.000017
   12  C  1  Y    0.000061   0.635693  -0.179942   1.945339  -0.000010
   13  C  1  Z    0.000147   1.636160  -1.068857  -0.633528  -0.000023
   14  C  1  S    8.538331  -0.000708  -0.000030  -0.000011   3.893034
   15  C  1  X   -0.000064  -0.533648  -0.872415   0.093686  -0.000007
   16  C  1  Y   -0.000040  -0.317765   0.089948  -0.972419  -0.000007
   17  C  1  Z   -0.000089  -0.817868   0.534292   0.316682  -0.000010
   18  C  1 XX    0.061684  -0.002255  -0.006241  -0.011681  -0.388393
   19  C  1 YY    0.061684  -0.011238  -0.004107   0.013945  -0.388392
   20  C  1 ZZ    0.061686   0.013466   0.010347  -0.002263  -0.388393
   21  C  1 XY    0.000000   0.005392  -0.020313  -0.016561  -0.000000
   22  C  1 XZ    0.000002   0.023927  -0.006396   0.012679  -0.000000
   23  C  1 YZ    0.000001   0.007438   0.017415  -0.014364  -0.000000
   24  C  1 XXX   0.004490  -0.006731  -0.010900   0.001492  -0.000686
   25  C  1 YYY  -0.008385  -0.004299   0.001122  -0.011930   0.001281
   26  C  1 ZZZ  -0.005025  -0.009972   0.006798   0.004193   0.000768
   27  C  1 XXY   0.012498  -0.001429   0.000770  -0.005157  -0.001910
   28  C  1 XXZ  -0.005643  -0.004333   0.002598   0.001712   0.000862
   29  C  1 YYX   0.011813  -0.002948  -0.004516   0.000273  -0.001805
   30  C  1 YYZ   0.012383  -0.004604   0.002859   0.001303  -0.001892
   31  C  1 ZZX  -0.017838  -0.002582  -0.004664   0.000282   0.002726
   32  C  1 ZZY  -0.001249  -0.001474   0.000179  -0.005368   0.000191
   33  C  1 XYZ  -0.022266  -0.000110   0.000135  -0.000050   0.003402
   34  H  2  S    0.057602  -0.022198  -0.046183  -0.033766   0.044071
   35  H  2  S    1.461104  -0.243781  -0.507039  -0.370710   0.176415
   36  H  2  S   -1.526618   0.835283   1.737909   1.270641  -2.215498
   37  H  2  S   -1.265363  -0.848271  -1.765388  -1.290733  -0.295785
   38  H  3  S    0.057602  -0.023774   0.053023  -0.019726   0.044071
   39  H  3  S    1.461106  -0.261081   0.582127  -0.216564   0.176414
   40  H  3  S   -1.526627   0.894581  -1.995308   0.742291  -2.215495
   41  H  3  S   -1.265352  -0.908506   2.026877  -0.754027  -0.295785
   42  H  4  S    0.057609   0.061101   0.001728  -0.005355   0.044070
   43  H  4  S    1.461162   0.670743   0.018971  -0.058788   0.176403
   44  H  4  S   -1.526884  -2.299339  -0.065037   0.201502  -2.215443
   45  H  4  S   -1.265039   2.335924   0.066075  -0.204682  -0.295782
   46  H  5  S    0.057602  -0.015147  -0.008569   0.058846   0.044071
   47  H  5  S    1.461108  -0.166364  -0.094081   0.646059   0.176415
   48  H  5  S   -1.526646   0.569928   0.322455  -2.214423  -2.215494
   49  H  5  S   -1.265326  -0.578716  -0.327546   2.249449  -0.295780

                     26         27         28         29         30
                    1.5207     1.5207     1.8696     1.8696     1.8696
                     A          A          A          A          A   
    1  C  1  S    0.000000  -0.000000  -0.000000  -0.000000   0.000000
    2  C  1  S    0.000000  -0.000000  -0.000000  -0.000000   0.000000
    3  C  1  X   -0.000000  -0.000000  -0.011056  -0.034029   0.013912
    4  C  1  Y   -0.000000   0.000000  -0.031607   0.001379  -0.021746
    5  C  1  Z    0.000000  -0.000000  -0.018776   0.017717   0.028414
    6  C  1  S   -0.000000   0.000001  -0.000000   0.000000  -0.000000
    7  C  1  X   -0.000000  -0.000000  -0.009741  -0.029982   0.012257
    8  C  1  Y   -0.000000   0.000000  -0.027848   0.001215  -0.019160
    9  C  1  Z    0.000000  -0.000000  -0.016542   0.015610   0.025034
   10  C  1  S    0.000001  -0.000003   0.000011   0.000002  -0.000009
   11  C  1  X   -0.000000  -0.000000  -0.256693  -0.790040   0.322993
   12  C  1  Y    0.000000  -0.000000  -0.733805   0.032020  -0.504859
   13  C  1  Z    0.000000  -0.000000  -0.435913   0.411322   0.659681
   14  C  1  S    0.000000  -0.000001   0.000018   0.000001  -0.000006
   15  C  1  X    0.000000   0.000000   0.206286   0.634898  -0.259566
   16  C  1  Y    0.000000  -0.000000   0.589706  -0.025732   0.405719
   17  C  1  Z   -0.000000   0.000000   0.350311  -0.330550  -0.530137
   18  C  1 XX   -0.716421  -0.527465   0.318667   0.257789   0.312035
   19  C  1 YY   -0.056399   0.779061   0.006776   0.177497  -0.681635
   20  C  1 ZZ    0.772820  -0.251596  -0.325445  -0.435286   0.369600
   21  C  1 XY    0.256109   0.327186   0.154685   0.776532   0.652679
   22  C  1 XZ   -0.315986   0.074435  -1.041504   0.155815   0.171762
   23  C  1 YZ   -0.303480   0.505080   0.160103  -0.673591   0.592796
   24  C  1 XXX   0.000000   0.000000  -0.031289  -0.076230   0.017580
   25  C  1 YYY   0.000000  -0.000000  -0.064714   0.004124  -0.065689
   26  C  1 ZZZ  -0.000001   0.000000  -0.056987   0.032768   0.061484
   27  C  1 XXY  -0.000000   0.000000  -0.050858  -0.012477  -0.022569
   28  C  1 XXZ   0.000000   0.000000  -0.027247   0.034592   0.037540
   29  C  1 YYX  -0.000000  -0.000000  -0.004041  -0.050199   0.023587
   30  C  1 YYZ   0.000000  -0.000001  -0.005156   0.024164   0.044711
   31  C  1 ZZX  -0.000000  -0.000000  -0.018083  -0.044824   0.033487
   32  C  1 ZZY   0.000000  -0.000000  -0.045571   0.014940  -0.015377
   33  C  1 XYZ  -0.000000  -0.000000   0.005959  -0.005656  -0.001414
   34  H  2  S    0.000000  -0.000000   0.198423   0.283028   0.086129
   35  H  2  S   -0.000001   0.000001  -1.039251  -1.482371  -0.451102
   36  H  2  S    0.000000   0.000000   0.543063   0.774625   0.235732
   37  H  2  S   -0.000000   0.000000   0.289222   0.412540   0.125541
   38  H  3  S   -0.000000  -0.000000   0.203746  -0.292203  -0.000292
   39  H  3  S    0.000000   0.000001  -1.067131   1.530421   0.001534
   40  H  3  S   -0.000001   0.000000   0.557632  -0.799736  -0.000797
   41  H  3  S   -0.000000   0.000000   0.296980  -0.425913  -0.000427
   42  H  4  S   -0.000000  -0.000000  -0.262068  -0.038217   0.238232
   43  H  4  S   -0.000000   0.000001   1.372589   0.200162  -1.247751
   44  H  4  S   -0.000000   0.000001  -0.717262  -0.104596   0.652023
   45  H  4  S   -0.000000   0.000000  -0.381995  -0.055706   0.347254
   46  H  5  S   -0.000000   0.000000  -0.140105   0.047391  -0.324068
   47  H  5  S   -0.000000   0.000000   0.733798  -0.248212   1.697321
   48  H  5  S   -0.000000   0.000001  -0.383460   0.129704  -0.886943
   49  H  5  S   -0.000000   0.000000  -0.204215   0.069077  -0.472366

                     31         32         33         34         35
                    2.5145     2.6535     2.6535     2.6535     3.0316
                     A          A          A          A          A   
    1  C  1  S   -0.041867   0.000000   0.000000   0.000000  -0.000000
    2  C  1  S   -0.128668   0.000001   0.000000   0.000000   0.000000
    3  C  1  X    0.000001   0.188195   0.294927   0.033158  -0.000001
    4  C  1  Y    0.000000   0.081926  -0.089363   0.329850   0.000003
    5  C  1  Z    0.000002   0.285255  -0.168910  -0.116611  -0.000001
    6  C  1  S    0.201117  -0.000002  -0.000000  -0.000000  -0.000000
    7  C  1  X   -0.000000  -0.098124  -0.153773  -0.017289   0.000000
    8  C  1  Y    0.000000  -0.042716   0.046593  -0.171982  -0.000001
    9  C  1  Z    0.000000  -0.148731   0.088069   0.060800   0.000000
   10  C  1  S   -0.284065   0.000004   0.000000  -0.000000  -0.000000
   11  C  1  X    0.000006   0.185860   0.291270   0.032747  -0.000001
   12  C  1  Y    0.000004   0.080910  -0.088254   0.325759   0.000003
   13  C  1  Z    0.000008   0.281716  -0.166816  -0.115165  -0.000001
   14  C  1  S    5.812860  -0.000053  -0.000001  -0.000004  -0.000000
   15  C  1  X   -0.000011   0.030667   0.048057   0.005403   0.000000
   16  C  1  Y   -0.000009   0.013350  -0.014561   0.053747  -0.000001
   17  C  1  Z   -0.000015   0.046484  -0.027523  -0.019002   0.000000
   18  C  1 XX   -0.293474  -0.017098  -0.050317  -0.155355  -0.000000
   19  C  1 YY   -0.293475  -0.150789  -0.074794   0.148576   0.000001
   20  C  1 ZZ   -0.293472   0.167893   0.125111   0.006779  -0.000000
   21  C  1 XY    0.000000   0.078541  -0.212064  -0.236278  -0.000000
   22  C  1 XZ    0.000003   0.278430  -0.110655   0.160914   0.000000
   23  C  1 YZ    0.000001   0.106997   0.237107  -0.129344  -0.000001
   24  C  1 XXX   0.061172   0.109584   0.095729  -0.269904   0.237095
   25  C  1 YYY  -0.114220   0.319086   0.011977  -0.113012  -0.576551
   26  C  1 ZZZ  -0.068446  -0.154118  -0.094261  -0.260065  -0.007638
   27  C  1 XXY   0.170254  -0.284068  -0.190462  -0.278745   0.198711
   28  C  1 XXZ  -0.076866  -0.187377   0.321919   0.084166  -0.211915
   29  C  1 YYX   0.160929  -0.037924  -0.327207   0.164150   0.169361
   30  C  1 YYZ   0.168694   0.019275   0.026520   0.417993   0.222164
   31  C  1 ZZX  -0.243001  -0.356417  -0.188807   0.154388  -0.487456
   32  C  1 ZZY  -0.017012  -0.251696   0.291830  -0.003109   0.574809
   33  C  1 XYZ  -0.303313   0.093547  -0.127207   0.030898   0.597962
   34  H  2  S   -0.590413   0.294456   0.576398   0.627704   0.000001
   35  H  2  S    1.541705  -0.407830  -0.798315  -0.869374  -0.000001
   36  H  2  S   -1.538965   0.403186   0.789225   0.859475   0.000001
   37  H  2  S   -0.780634  -0.140854  -0.275743  -0.300286  -0.000001
   38  H  3  S   -0.590413   0.315919  -0.825483   0.178115   0.000001
   39  H  3  S    1.541706  -0.437557   1.143298  -0.246691  -0.000001
   40  H  3  S   -1.538966   0.432574  -1.130280   0.243882   0.000002
   41  H  3  S   -0.780632  -0.151121   0.394903  -0.085208  -0.000001
   42  H  4  S   -0.590421  -0.901486  -0.015551   0.005455   0.000001
   43  H  4  S    1.541709   1.248561   0.021538  -0.007555  -0.000001
   44  H  4  S   -1.538974  -1.234340  -0.021293   0.007469   0.000001
   45  H  4  S   -0.780595   0.431266   0.007439  -0.002608  -0.000001
   46  H  5  S   -0.590412   0.291128   0.264636  -0.811273  -0.000002
   47  H  5  S    1.541703  -0.403222  -0.366523   1.123617   0.000002
   48  H  5  S   -1.538965   0.398629   0.362349  -1.110823  -0.000004
   49  H  5  S   -0.780628  -0.139261  -0.126599   0.388104   0.000003

                     36         37         38         39         40
                    3.0316     3.0316     3.1302     3.1302     3.1302
                     A          A          A          A          A   
    1  C  1  S    0.000000  -0.000000  -0.000000   0.000000  -0.000000
    2  C  1  S    0.000000  -0.000000  -0.000001   0.000000  -0.000000
    3  C  1  X    0.000002   0.000000   0.001698  -0.821329  -0.069117
    4  C  1  Y    0.000000   0.000000   0.026119  -0.069029   0.820923
    5  C  1  Z   -0.000002  -0.000000   0.823817   0.003885  -0.025885
    6  C  1  S   -0.000000   0.000000   0.000003  -0.000002   0.000001
    7  C  1  X   -0.000001  -0.000000  -0.000354   0.171417   0.014425
    8  C  1  Y   -0.000000  -0.000000  -0.005451   0.014407  -0.171332
    9  C  1  Z    0.000000   0.000000  -0.171936  -0.000811   0.005402
   10  C  1  S   -0.000000   0.000000  -0.000002   0.000002  -0.000001
   11  C  1  X    0.000002   0.000001   0.001815  -0.877414  -0.073837
   12  C  1  Y    0.000000   0.000000   0.027903  -0.073742   0.876981
   13  C  1  Z   -0.000002  -0.000000   0.880073   0.004149  -0.027653
   14  C  1  S   -0.000000   0.000000  -0.000019   0.000014  -0.000007
   15  C  1  X   -0.000001  -0.000000  -0.000957   0.462480   0.038919
   16  C  1  Y   -0.000000   0.000000  -0.014708   0.038869  -0.462251
   17  C  1  Z    0.000001   0.000000  -0.463881  -0.002187   0.014576
   18  C  1 XX   -0.000000  -0.000000   0.003991   0.005402  -0.009250
   19  C  1 YY   -0.000000  -0.000000  -0.009194   0.008221   0.009603
   20  C  1 ZZ    0.000000   0.000000   0.005199  -0.013621  -0.000354
   21  C  1 XY   -0.000001  -0.000000   0.016632   0.011927  -0.009979
   22  C  1 XZ   -0.000000  -0.000000   0.016261  -0.006304   0.016014
   23  C  1 YZ    0.000000   0.000000   0.000789  -0.016014  -0.012329
   24  C  1 XXX   0.193430  -0.353340  -0.147152   0.980185   0.382206
   25  C  1 YYY  -0.023355   0.085833  -0.365682   0.266225  -0.805566
   26  C  1 ZZZ  -0.609425  -0.007774  -0.873935  -0.245438   0.306872
   27  C  1 XXY   0.592425  -0.185864   0.052945  -0.387133  -0.100841
   28  C  1 XXZ   0.642890   0.572524  -0.000541   0.201946   0.071476
   29  C  1 YYX  -0.159548   0.795230  -0.092488   0.088009  -0.257030
   30  C  1 YYZ   0.174741  -0.562093  -0.248231   0.120642  -0.438530
   31  C  1 ZZX  -0.099968  -0.321176   0.286984   0.013920  -0.136510
   32  C  1 ZZY  -0.561092   0.070707   0.392608   0.149045  -0.234666
   33  C  1 XYZ   0.269939   0.034757  -0.150709  -0.055009  -0.097164
   34  H  2  S    0.000001   0.000000  -0.024384  -0.079180   0.048882
   35  H  2  S   -0.000002  -0.000000   0.053361   0.173274  -0.106971
   36  H  2  S    0.000002   0.000001  -0.166297  -0.540007   0.333376
   37  H  2  S   -0.000002  -0.000001   0.221204   0.718269  -0.443428
   38  H  3  S   -0.000001  -0.000000   0.064764   0.050150   0.050439
   39  H  3  S    0.000002   0.000000  -0.141726  -0.109745  -0.110379
   40  H  3  S   -0.000003  -0.000001   0.441691   0.342019   0.343996
   41  H  3  S    0.000002   0.000001  -0.587495  -0.454933  -0.457554
   42  H  4  S    0.000000   0.000000  -0.078213   0.054087  -0.014503
   43  H  4  S   -0.000000  -0.000000   0.171156  -0.118361   0.031738
   44  H  4  S    0.000000   0.000000  -0.533413   0.368877  -0.098912
   45  H  4  S   -0.000000  -0.000000   0.709515  -0.490660   0.131569
   46  H  5  S   -0.000000  -0.000000   0.037835  -0.025059  -0.084817
   47  H  5  S    0.000000   0.000000  -0.082797   0.054838   0.185611
   48  H  5  S   -0.000000  -0.000000   0.258038  -0.170903  -0.578454
   49  H  5  S    0.000000  -0.000000  -0.343213   0.227316   0.769417

                     41         42         43         44         45
                    3.3808     3.9787     3.9787     3.9787     4.6266
                     A          A          A          A          A   
    1  C  1  S   -0.158491   0.000000   0.000000  -0.000000   0.054951
    2  C  1  S   -0.612494   0.000001   0.000001  -0.000000   0.224128
    3  C  1  X    0.000000   0.207716  -0.172820  -0.270183   0.000001
    4  C  1  Y    0.000000   0.066829   0.338152  -0.164918   0.000000
    5  C  1  Z    0.000001   0.313691   0.042395   0.214041   0.000001
    6  C  1  S    1.623875  -0.000000  -0.000002   0.000001  -1.033741
    7  C  1  X   -0.000001   0.175782  -0.146253  -0.228650   0.000001
    8  C  1  Y   -0.000001   0.056555   0.286170  -0.139566  -0.000000
    9  C  1  Z   -0.000001   0.265465   0.035878   0.181138   0.000001
   10  C  1  S    3.839774  -0.000010  -0.000003   0.000001  -0.511334
   11  C  1  X   -0.000004   0.121735  -0.101282  -0.158343   0.000001
   12  C  1  Y   -0.000003   0.039166   0.198176  -0.096651   0.000001
   13  C  1  Z   -0.000005   0.183843   0.024845   0.125440   0.000002
   14  C  1  S    0.602201  -0.000008   0.000003  -0.000000   1.838938
   15  C  1  X   -0.000004  -0.125459   0.104381   0.163188  -0.000003
   16  C  1  Y   -0.000003  -0.040364  -0.204240   0.099609  -0.000002
   17  C  1  Z   -0.000005  -0.189467  -0.025606  -0.129279  -0.000004
   18  C  1 XX   -1.522187   0.013307   0.123786  -0.205756   0.634622
   19  C  1 YY   -1.522187   0.234743  -0.223568   0.055213   0.634624
   20  C  1 ZZ   -1.522187  -0.248042   0.099786   0.150541   0.634622
   21  C  1 XY   -0.000000  -0.129216   0.049362  -0.458627  -0.000001
   22  C  1 XZ   -0.000000  -0.390879  -0.305752   0.043012   0.000000
   23  C  1 YZ   -0.000000  -0.173183   0.362299   0.140723  -0.000002
   24  C  1 XXX  -0.052185   0.010149  -0.251226   0.406330  -0.158335
   25  C  1 YYY   0.097448   0.450006  -0.425157   0.239775   0.295651
   26  C  1 ZZZ   0.058393  -0.505297  -0.260912   0.191894   0.177158
   27  C  1 XXY  -0.145251  -0.452579  -0.293296   0.590896  -0.440687
   28  C  1 XXZ   0.065575  -0.419779  -0.266440  -0.547078   0.198952
   29  C  1 YYX  -0.137292  -0.167170   0.598518   0.328344  -0.416546
   30  C  1 YYZ  -0.143916  -0.133660   0.450073  -0.550582  -0.436645
   31  C  1 ZZX   0.207307  -0.661816   0.416932   0.187100   0.628967
   32  C  1 ZZY   0.014511  -0.413499  -0.463697  -0.265211   0.044029
   33  C  1 XYZ   0.258765   0.140443   0.175824   0.114867   0.785089
   34  H  2  S   -0.014321  -0.364094  -0.146982   1.160000  -0.779931
   35  H  2  S   -0.014260   0.241745   0.097591  -0.770198   0.599911
   36  H  2  S   -0.834296  -0.116350  -0.046971   0.370702  -0.421993
   37  H  2  S    0.033940  -0.044299  -0.017884   0.141134  -0.259772
   38  H  3  S   -0.014321  -0.395317  -0.942633  -0.674489  -0.779931
   39  H  3  S   -0.014260   0.262477   0.625875   0.447836   0.599911
   40  H  3  S   -0.834295  -0.126328  -0.301238  -0.215547  -0.421993
   41  H  3  S    0.033940  -0.048098  -0.114688  -0.082063  -0.259772
   42  H  4  S   -0.014319   1.223053   0.046857  -0.041140  -0.779929
   43  H  4  S   -0.014259  -0.812069  -0.031112   0.027315   0.599912
   44  H  4  S   -0.834286   0.390855   0.014975  -0.013148  -0.421995
   45  H  4  S    0.033950   0.148813   0.005700  -0.005005  -0.259762
   46  H  5  S   -0.014321  -0.463641   1.042754  -0.444370  -0.779936
   47  H  5  S   -0.014259   0.307841  -0.692350   0.295045   0.599914
   48  H  5  S   -0.834296  -0.148161   0.333233  -0.142008  -0.421995
   49  H  5  S    0.033942  -0.056413   0.126870  -0.054066  -0.259771

                     46         47         48         49
                    9.5005     9.5005     9.5005    27.6959
                     A          A          A          A   
    1  C  1  S   -0.000000  -0.000000  -0.000000  -2.115163
    2  C  1  S   -0.000000  -0.000000  -0.000000   2.569535
    3  C  1  X   -3.132701  -0.738859  -2.017948   0.000000
    4  C  1  Y    0.101372  -3.614162   1.165930   0.000000
    5  C  1  Z    2.146566  -0.907611  -3.000056   0.000001
    6  C  1  S   -0.000000  -0.000001  -0.000001  -1.095007
    7  C  1  X   12.995334   3.064995   8.371020  -0.000001
    8  C  1  Y   -0.420522  14.992573  -4.836609  -0.000001
    9  C  1  Z   -8.904567   3.765026  12.445086  -0.000002
   10  C  1  S    0.000000   0.000005   0.000006  -1.125189
   11  C  1  X   -1.783158  -0.420564  -1.148632   0.000001
   12  C  1  Y    0.057702  -2.057209   0.663657   0.000001
   13  C  1  Z    1.221842  -0.516619  -1.707656   0.000002
   14  C  1  S    0.000000   0.000024   0.000027  -0.236494
   15  C  1  X    0.683872   0.161294   0.440520   0.000001
   16  C  1  Y   -0.022130   0.788976  -0.254524   0.000001
   17  C  1  Z   -0.468598   0.198132   0.654915   0.000002
   18  C  1 XX   -0.026678  -0.039948   0.017363   0.657426
   19  C  1 YY   -0.010383   0.018572  -0.066525   0.657426
   20  C  1 ZZ    0.037061   0.021374   0.049160   0.657426
   21  C  1 XY   -0.082248  -0.035688   0.048099  -0.000000
   22  C  1 XZ   -0.023394   0.093342   0.043970  -0.000000
   23  C  1 YZ    0.061138  -0.030450   0.059183  -0.000000
   24  C  1 XXX  -6.689688  -1.562539  -4.327128  -0.006960
   25  C  1 YYY   0.218231  -7.721003   2.462774   0.012998
   26  C  1 ZZZ   4.594405  -1.915478  -6.403291   0.007789
   27  C  1 XXY   0.116238  -3.423271   1.123493  -0.019373
   28  C  1 XXZ   2.022603  -0.859386  -2.851826   0.008746
   29  C  1 YYX  -2.968817  -0.719693  -1.913722  -0.018311
   30  C  1 YYZ   2.039368  -0.894489  -2.849203  -0.019195
   31  C  1 ZZX  -2.979876  -0.703783  -1.894111   0.027650
   32  C  1 ZZY   0.073903  -3.435399   1.126714   0.001936
   33  C  1 XYZ   0.009380  -0.007853  -0.003657   0.034513
   34  H  2  S   -0.040642  -0.032580  -0.001199  -0.054754
   35  H  2  S    0.446055   0.357574   0.013159   0.008667
   36  H  2  S   -1.006279  -0.806671  -0.029686   0.257217
   37  H  2  S    1.189568   0.953591   0.035081  -0.002279
   38  H  3  S    0.044243  -0.027286  -0.003561  -0.054754
   39  H  3  S   -0.485578   0.299472   0.039086   0.008667
   40  H  3  S    1.095441  -0.675594  -0.088175   0.257217
   41  H  3  S   -1.294972   0.798640   0.104223  -0.002279
   42  H  4  S   -0.000416   0.026644   0.044769  -0.054754
   43  H  4  S    0.004564  -0.292439  -0.491372   0.008667
   44  H  4  S   -0.010296   0.659731   1.108514   0.257214
   45  H  4  S    0.012171  -0.779907  -1.310434  -0.002282
   46  H  5  S   -0.003185   0.033220  -0.040012  -0.054755
   47  H  5  S    0.034959  -0.364596   0.439141   0.008667
   48  H  5  S   -0.078867   0.822510  -0.990681   0.257217
   49  H  5  S    0.093232  -0.972337   1.171115  -0.002280
 ...... END OF RHF CALCULATION ......
 STEP CPU TIME =     0.27 TOTAL CPU TIME =          0.3 (      0.0 MIN)
 TOTAL WALL CLOCK TIME=          0.3 SECONDS, CPU UTILIZATION IS    96.67%

     ----------------------------------------------------------------
     PROPERTY VALUES FOR THE RHF   SELF-CONSISTENT FIELD WAVEFUNCTION
     ----------------------------------------------------------------

          -----------------
          ENERGY COMPONENTS
          -----------------

         WAVEFUNCTION NORMALIZATION =       1.0000000000

                ONE ELECTRON ENERGY =     -79.7071403164
                TWO ELECTRON ENERGY =      26.0658286620
           NUCLEAR REPULSION ENERGY =      13.4353882208
                                      ------------------
                       TOTAL ENERGY =     -40.2059234336

 ELECTRON-ELECTRON POTENTIAL ENERGY =      26.0658286620
  NUCLEUS-ELECTRON POTENTIAL ENERGY =    -119.8568193984
   NUCLEUS-NUCLEUS POTENTIAL ENERGY =      13.4353882208
                                      ------------------
             TOTAL POTENTIAL ENERGY =     -80.3556025157
               TOTAL KINETIC ENERGY =      40.1496790820
                 VIRIAL RATIO (V/T) =       2.0014008668

          ---------------------------------------
          MULLIKEN AND LOWDIN POPULATION ANALYSES
          ---------------------------------------

     ATOMIC MULLIKEN POPULATION IN EACH MOLECULAR ORBITAL

                      1          2          3          4          5

                  2.000000   2.000000   2.000000   2.000000   2.000000

    1             2.000119   1.412416   1.126599   1.126600   1.126600
    2            -0.000030   0.146896   0.002448   0.249486   0.403115
    3            -0.000030   0.146896   0.006705   0.180182   0.468162
    4            -0.000030   0.146894   0.518048   0.136993   0.000011
    5            -0.000030   0.146897   0.346199   0.306739   0.002111

               ----- POPULATIONS IN EACH AO -----
                             MULLIKEN      LOWDIN
              1  C  1  S      1.10323     1.04710
              2  C  1  S      0.89059     0.91228
              3  C  1  X      0.20431     0.18110
              4  C  1  Y      0.20431     0.18120
              5  C  1  Z      0.20431     0.18116
              6  C  1  S      0.71391     0.40529
              7  C  1  X      0.49972     0.30193
              8  C  1  Y      0.49972     0.30239
              9  C  1  Z      0.49972     0.30232
             10  C  1  S      0.64558     0.25803
             11  C  1  X      0.37913     0.32448
             12  C  1  Y      0.37913     0.32464
             13  C  1  Z      0.37913     0.32469
             14  C  1  S     -0.01943     0.04130
             15  C  1  X     -0.02569     0.04820
             16  C  1  Y     -0.02569     0.04821
             17  C  1  Z     -0.02569     0.04821
             18  C  1 XX      0.02743     0.15484
             19  C  1 YY      0.02990     0.15778
             20  C  1 ZZ      0.02921     0.15701
             21  C  1 XY      0.01688     0.02382
             22  C  1 XZ      0.01825     0.02577
             23  C  1 YZ      0.01331     0.01880
             24  C  1 XXX     0.02513     0.18346
             25  C  1 YYY     0.02703     0.18954
             26  C  1 ZZZ     0.02644     0.18786
             27  C  1 XXY     0.01207     0.09981
             28  C  1 XXZ     0.01213     0.10120
             29  C  1 YYX     0.01193     0.09926
             30  C  1 YYZ     0.01073     0.09377
             31  C  1 ZZX     0.01304     0.10263
             32  C  1 ZZY     0.01024     0.09298
             33  C  1 XYZ     0.00229     0.00372
             34  H  2  S      0.26289     0.22905
             35  H  2  S      0.42725     0.36441
             36  H  2  S      0.09048     0.15017
             37  H  2  S      0.02129     0.02524
             38  H  3  S      0.26288     0.22650
             39  H  3  S      0.42725     0.36344
             40  H  3  S      0.09048     0.15025
             41  H  3  S      0.02129     0.02525
             42  H  4  S      0.26288     0.22988
             43  H  4  S      0.42726     0.36473
             44  H  4  S      0.09048     0.15014
             45  H  4  S      0.02129     0.02524
             46  H  5  S      0.26289     0.23058
             47  H  5  S      0.42725     0.36500
             48  H  5  S      0.09048     0.15012
             49  H  5  S      0.02129     0.02524

          ----- MULLIKEN ATOMIC OVERLAP POPULATIONS -----
          (OFF-DIAGONAL ELEMENTS NEED TO BE MULTIPLIED BY 2)

             1           2           3           4           5

    1    5.2550896
    2    0.3843113   0.5317410
    3    0.3843113  -0.0380457   0.5317411
    4    0.3843113  -0.0380450  -0.0380450   0.5317407
    5    0.3843112  -0.0380456  -0.0380456  -0.0380448   0.5317407

          TOTAL MULLIKEN AND LOWDIN ATOMIC POPULATIONS
       ATOM         MULL.POP.    CHARGE          LOW.POP.     CHARGE
    1 C             6.792335   -0.792335         6.924773   -0.924773
    2 H             0.801916    0.198084         0.768872    0.231128
    3 H             0.801916    0.198084         0.765435    0.234565
    4 H             0.801917    0.198083         0.769987    0.230013
    5 H             0.801916    0.198084         0.770934    0.229066

          -------------------------------
          BOND ORDER AND VALENCE ANALYSIS     BOND ORDER THRESHOLD=0.050
          -------------------------------

                   BOND                       BOND                       BOND
  ATOM PAIR DIST  ORDER      ATOM PAIR DIST  ORDER      ATOM PAIR DIST  ORDER
    1   2  1.090  0.945        1   3  1.090  0.945        1   4  1.090  0.945
    1   5  1.090  0.945

                       TOTAL       BONDED        FREE
      ATOM            VALENCE     VALENCE     VALENCE
    1 C                 3.782       3.782       0.000
    2 H                 0.907       0.907       0.000
    3 H                 0.907       0.907       0.000
    4 H                 0.907       0.907       0.000
    5 H                 0.907       0.907       0.000

          ---------------------
          ELECTROSTATIC MOMENTS
          ---------------------

 POINT   1           X           Y           Z (BOHR)    CHARGE
                 0.000001    0.000001    0.000001       -0.00 (A.U.)
         DX          DY          DZ         /D/  (DEBYE)
    -0.000004   -0.000002   -0.000005    0.000006
 ...... END OF PROPERTY EVALUATION ......
 STEP CPU TIME =     0.00 TOTAL CPU TIME =          0.3 (      0.0 MIN)
 TOTAL WALL CLOCK TIME=          0.3 SECONDS, CPU UTILIZATION IS    96.67%
               580000  WORDS OF DYNAMIC MEMORY USED
 EXECUTION OF GAMESS TERMINATED NORMALLY Wed Jan 16 13:54:44 2019
 DDI: 263640 bytes (0.3 MB / 0 MWords) used by master data server.

 ----------------------------------------
 CPU timing information for all processes
 ========================================
 0: 0.288 + 0.16 = 0.304
 ----------------------------------------
 ddikick.x: exited gracefully.
----- accounting info -----
Files used on the master node multivac2 were:
-rw-rw-r-- 1 igorchem igorchem     649 Jan 16 13:54 /home/igorchem/programs/src/metano.F05
-rw-rw-r-- 1 igorchem igorchem 1537840 Jan 16 13:54 /home/igorchem/programs/src/metano.F10
Wed Jan 16 13:54:47 -03 2019
0.0u 0.0s 0:03.34 0.2% 0+0k 0+16io 0pf+0w
