 *******************************************************************************
 ** Site#: 29116        For non-commercial use only    Version 18.025L 64BITS **
 *******************************************************************************
 ** Cite this program as: MOPAC2016, Version: 18.025L, James J. P. Stewart,   **
 ** Stewart Computational Chemistry, web: HTTP://OpenMOPAC.net. Days left: 110**
 *******************************************************************************
 **                                                                           **
 **                                MOPAC2016                                  **
 **                                                                           **
 *******************************************************************************

                              PM7 CALCULATION RESULTS


 *******************************************************************************
 *  CALCULATION DONE:                                Sun Oct  7 12:15:19 2018  *
 *  PM7        - The PM7 Hamiltonian to be used
 *  SINGLET    - SPIN STATE DEFINED AS A SINGLET
 *
 *
 *
 *                 CHARGE ON SYSTEM = 0
 *
 *
 *
 *  1SCF       - DO 1 SCF AND THEN STOP 
 *  T=         - A TIME OF 172800.0 SECONDS REQUESTED
 *  DUMP=N     - RESTART FILE WRITTEN EVERY  7200.000 SECONDS
 *  AUX        - OUTPUT AUXILIARY INFORMATION
 *  LARGE      - EXPANDED OUTPUT TO BE PRINTED
 *  ALLVEC     - PRINT ALL EIGENVECTORS
 *******************************************************************************
PM7 1SCF CHARGE=0 Singlet  LARGE ALLVECS AUX


   ATOM   CHEMICAL          X               Y               Z
  NUMBER   SYMBOL      (ANGSTROMS)     (ANGSTROMS)     (ANGSTROMS)
 
     1       C          1.22650000  *   0.00000000  *   3.31450000  *
     2       C          0.37900000  *   1.16640000  *   3.31450000  *
     3       C         -0.99220000  *   0.72090000  *   3.31450000  *
     4       C         -0.99220000  *  -0.72090000  *   3.31450000  *
     5       C          0.37900000  *  -1.16640000  *   3.31450000  *
     6       C          3.40840000  *   0.72090000  *   0.59480000  *
     7       C          2.79510000  *   1.16640000  *   1.82130000  *
     8       C          2.41610000  *   0.00000000  *   2.57930000  *
     9       C          2.79510000  *  -1.16640000  *   1.82130000  *
    10       C          3.40840000  *  -0.72090000  *   0.59480000  *
    11       C          0.36760000  *   3.46430000  *   0.59480000  *
    12       C         -0.24560000  *   3.01880000  *   1.82130000  *
    13       C          0.74660000  *   2.29790000  *   2.57930000  *
    14       C          1.97310000  *   2.29790000  *   1.82130000  *
    15       C          1.73890000  *   3.01880000  *   0.59480000  *
    16       C         -3.18120000  *   1.42020000  *   0.59480000  *
    17       C         -2.94690000  *   0.69930000  *   1.82130000  *
    18       C         -1.95470000  *   1.42020000  *   2.57930000  *
    19       C         -1.57570000  *   2.58660000  *   1.82130000  *
    20       C         -2.33370000  *   2.58660000  *   0.59480000  *
    21       C         -2.33370000  *  -2.58660000  *   0.59480000  *
    22       C         -1.57570000  *  -2.58660000  *   1.82130000  *
    23       C         -1.95470000  *  -1.42020000  *   2.57930000  *
    24       C         -2.94690000  *  -0.69930000  *   1.82130000  *
    25       C         -3.18120000  *  -1.42020000  *   0.59480000  *
    26       C          1.73890000  *  -3.01880000  *   0.59480000  *
    27       C          1.97310000  *  -2.29790000  *   1.82130000  *
    28       C          0.74660000  *  -2.29790000  *   2.57930000  *
    29       C         -0.24560000  *  -3.01880000  *   1.82130000  *
    30       C          0.36760000  *  -3.46430000  *   0.59480000  *
    31       C          0.99220000  *   0.72090000  *  -3.31450000  *
    32       C         -0.37900000  *   1.16640000  *  -3.31450000  *
    33       C         -1.22650000  *   0.00000000  *  -3.31450000  *
    34       C         -0.37900000  *  -1.16640000  *  -3.31450000  *
    35       C          0.99220000  *  -0.72090000  *  -3.31450000  *
    36       C          2.33370000  *   2.58660000  *  -0.59480000  *
    37       C          1.57570000  *   2.58660000  *  -1.82130000  *
    38       C          1.95470000  *   1.42020000  *  -2.57930000  *
    39       C          2.94690000  *   0.69930000  *  -1.82130000  *
    40       C          3.18120000  *   1.42020000  *  -0.59480000  *
    41       C         -1.73890000  *   3.01880000  *  -0.59480000  *
    42       C         -1.97310000  *   2.29790000  *  -1.82130000  *
    43       C         -0.74660000  *   2.29790000  *  -2.57930000  *
    44       C          0.24560000  *   3.01880000  *  -1.82130000  *
    45       C         -0.36760000  *   3.46430000  *  -0.59480000  *
    46       C         -3.40840000  *  -0.72090000  *  -0.59480000  *
    47       C         -2.79510000  *  -1.16640000  *  -1.82130000  *
    48       C         -2.41610000  *   0.00000000  *  -2.57930000  *
    49       C         -2.79510000  *   1.16640000  *  -1.82130000  *
    50       C         -3.40840000  *   0.72090000  *  -0.59480000  *
    51       C         -0.36760000  *  -3.46430000  *  -0.59480000  *
    52       C          0.24560000  *  -3.01880000  *  -1.82130000  *
    53       C         -0.74660000  *  -2.29790000  *  -2.57930000  *
    54       C         -1.97310000  *  -2.29790000  *  -1.82130000  *
    55       C         -1.73890000  *  -3.01880000  *  -0.59480000  *
    56       C          3.18120000  *  -1.42020000  *  -0.59480000  *
    57       C          2.94690000  *  -0.69930000  *  -1.82130000  *
    58       C          1.95470000  *  -1.42020000  *  -2.57930000  *
    59       C          1.57570000  *  -2.58660000  *  -1.82130000  *
    60       C          2.33370000  *  -2.58660000  *  -0.59480000  *
 


          CARTESIAN COORDINATES 

    NO.       ATOM           X           Y           Z

     1         C          1.2265      0.0000      3.3145
     2         C          0.3790      1.1664      3.3145
     3         C         -0.9922      0.7209      3.3145
     4         C         -0.9922     -0.7209      3.3145
     5         C          0.3790     -1.1664      3.3145
     6         C          3.4084      0.7209      0.5948
     7         C          2.7951      1.1664      1.8213
     8         C          2.4161      0.0000      2.5793
     9         C          2.7951     -1.1664      1.8213
    10         C          3.4084     -0.7209      0.5948
    11         C          0.3676      3.4643      0.5948
    12         C         -0.2456      3.0188      1.8213
    13         C          0.7466      2.2979      2.5793
    14         C          1.9731      2.2979      1.8213
    15         C          1.7389      3.0188      0.5948
    16         C         -3.1812      1.4202      0.5948
    17         C         -2.9469      0.6993      1.8213
    18         C         -1.9547      1.4202      2.5793
    19         C         -1.5757      2.5866      1.8213
    20         C         -2.3337      2.5866      0.5948
    21         C         -2.3337     -2.5866      0.5948
    22         C         -1.5757     -2.5866      1.8213
    23         C         -1.9547     -1.4202      2.5793
    24         C         -2.9469     -0.6993      1.8213
    25         C         -3.1812     -1.4202      0.5948
    26         C          1.7389     -3.0188      0.5948
    27         C          1.9731     -2.2979      1.8213
    28         C          0.7466     -2.2979      2.5793
    29         C         -0.2456     -3.0188      1.8213
    30         C          0.3676     -3.4643      0.5948
    31         C          0.9922      0.7209     -3.3145
    32         C         -0.3790      1.1664     -3.3145
    33         C         -1.2265      0.0000     -3.3145
    34         C         -0.3790     -1.1664     -3.3145
    35         C          0.9922     -0.7209     -3.3145
    36         C          2.3337      2.5866     -0.5948
    37         C          1.5757      2.5866     -1.8213
    38         C          1.9547      1.4202     -2.5793
    39         C          2.9469      0.6993     -1.8213
    40         C          3.1812      1.4202     -0.5948
    41         C         -1.7389      3.0188     -0.5948
    42         C         -1.9731      2.2979     -1.8213
    43         C         -0.7466      2.2979     -2.5793
    44         C          0.2456      3.0188     -1.8213
    45         C         -0.3676      3.4643     -0.5948
    46         C         -3.4084     -0.7209     -0.5948
    47         C         -2.7951     -1.1664     -1.8213
    48         C         -2.4161      0.0000     -2.5793
    49         C         -2.7951      1.1664     -1.8213
    50         C         -3.4084      0.7209     -0.5948
    51         C         -0.3676     -3.4643     -0.5948
    52         C          0.2456     -3.0188     -1.8213
    53         C         -0.7466     -2.2979     -2.5793
    54         C         -1.9731     -2.2979     -1.8213
    55         C         -1.7389     -3.0188     -0.5948
    56         C          3.1812     -1.4202     -0.5948
    57         C          2.9469     -0.6993     -1.8213
    58         C          1.9547     -1.4202     -2.5793
    59         C          1.5757     -2.5866     -1.8213
    60         C          2.3337     -2.5866     -0.5948

 General Reference for PM7:
 "Optimization of Parameters for Semiempirical Methods VI: More Modifications to the 
 NDDO Approximations and Re-optimization of Parameters", J. J. P. Stewart, J. Mol. Mod., 1:32, 19 (2013)
 http://www.springerlink.com/openurl.asp?genre=article&id=doi:10.1007/s00894-012-1667-x

           Empirical Formula: C60  =    60 atoms



      MOLECULAR POINT GROUP   :   Ih  


 SINGLET STATE CALCULATION


      RHF CALCULATION, NO. OF DOUBLY OCCUPIED LEVELS = 120


 -------------------------------------------------------------------------------
 PM7 1SCF CHARGE=0 Singlet  LARGE ALLVECS AUX




     1SCF WAS SPECIFIED, SO BFGS WAS NOT USED                 
     SCF FIELD WAS ACHIEVED                                   


                              PM7 CALCULATION
                                                       MOPAC2016 (Version: 18.025L)
                                                       Sun Oct  7 12:15:20 2018
                                                       No. of days remaining = 110




          FINAL HEAT OF FORMATION =        843.72765 KCAL/MOL =    3530.15647 KJ/MOL


          TOTAL ENERGY            =      -7346.97346 EV
          ELECTRONIC ENERGY       =    -102638.93625 EV  POINT GROUP:     Ih  
          CORE-CORE REPULSION     =      95291.96279 EV
          COSMO AREA              =        401.60 SQUARE ANGSTROMS
          COSMO VOLUME            =        620.28 CUBIC ANGSTROMS

          IONIZATION POTENTIAL    =          9.569575 EV
          HOMO LUMO ENERGIES (EV) =         -9.570 -3.170
          NO. OF FILLED LEVELS    =        120
          MOLECULAR WEIGHT        =        720.6600

          MOLECULAR DIMENSIONS (Angstroms)

            Atom       Atom       Distance
            C    40    C    25     7.06846
            C    41    C    26     7.05045
            C    34    C     2     7.02944


          SCF CALCULATIONS        =          1
 
          WALL-CLOCK TIME         =          0.344 SECONDS
          COMPUTATION TIME        =          0.392 SECONDS




   ATOM   CHEMICAL          X               Y               Z
  NUMBER   SYMBOL      (ANGSTROMS)     (ANGSTROMS)     (ANGSTROMS)
 
     1       C          1.22650000  *   0.00000000  *   3.31450000  *
     2       C          0.37900000  *   1.16640000  *   3.31450000  *
     3       C         -0.99220000  *   0.72090000  *   3.31450000  *
     4       C         -0.99220000  *  -0.72090000  *   3.31450000  *
     5       C          0.37900000  *  -1.16640000  *   3.31450000  *
     6       C          3.40840000  *   0.72090000  *   0.59480000  *
     7       C          2.79510000  *   1.16640000  *   1.82130000  *
     8       C          2.41610000  *   0.00000000  *   2.57930000  *
     9       C          2.79510000  *  -1.16640000  *   1.82130000  *
    10       C          3.40840000  *  -0.72090000  *   0.59480000  *
    11       C          0.36760000  *   3.46430000  *   0.59480000  *
    12       C         -0.24560000  *   3.01880000  *   1.82130000  *
    13       C          0.74660000  *   2.29790000  *   2.57930000  *
    14       C          1.97310000  *   2.29790000  *   1.82130000  *
    15       C          1.73890000  *   3.01880000  *   0.59480000  *
    16       C         -3.18120000  *   1.42020000  *   0.59480000  *
    17       C         -2.94690000  *   0.69930000  *   1.82130000  *
    18       C         -1.95470000  *   1.42020000  *   2.57930000  *
    19       C         -1.57570000  *   2.58660000  *   1.82130000  *
    20       C         -2.33370000  *   2.58660000  *   0.59480000  *
    21       C         -2.33370000  *  -2.58660000  *   0.59480000  *
    22       C         -1.57570000  *  -2.58660000  *   1.82130000  *
    23       C         -1.95470000  *  -1.42020000  *   2.57930000  *
    24       C         -2.94690000  *  -0.69930000  *   1.82130000  *
    25       C         -3.18120000  *  -1.42020000  *   0.59480000  *
    26       C          1.73890000  *  -3.01880000  *   0.59480000  *
    27       C          1.97310000  *  -2.29790000  *   1.82130000  *
    28       C          0.74660000  *  -2.29790000  *   2.57930000  *
    29       C         -0.24560000  *  -3.01880000  *   1.82130000  *
    30       C          0.36760000  *  -3.46430000  *   0.59480000  *
    31       C          0.99220000  *   0.72090000  *  -3.31450000  *
    32       C         -0.37900000  *   1.16640000  *  -3.31450000  *
    33       C         -1.22650000  *   0.00000000  *  -3.31450000  *
    34       C         -0.37900000  *  -1.16640000  *  -3.31450000  *
    35       C          0.99220000  *  -0.72090000  *  -3.31450000  *
    36       C          2.33370000  *   2.58660000  *  -0.59480000  *
    37       C          1.57570000  *   2.58660000  *  -1.82130000  *
    38       C          1.95470000  *   1.42020000  *  -2.57930000  *
    39       C          2.94690000  *   0.69930000  *  -1.82130000  *
    40       C          3.18120000  *   1.42020000  *  -0.59480000  *
    41       C         -1.73890000  *   3.01880000  *  -0.59480000  *
    42       C         -1.97310000  *   2.29790000  *  -1.82130000  *
    43       C         -0.74660000  *   2.29790000  *  -2.57930000  *
    44       C          0.24560000  *   3.01880000  *  -1.82130000  *
    45       C         -0.36760000  *   3.46430000  *  -0.59480000  *
    46       C         -3.40840000  *  -0.72090000  *  -0.59480000  *
    47       C         -2.79510000  *  -1.16640000  *  -1.82130000  *
    48       C         -2.41610000  *   0.00000000  *  -2.57930000  *
    49       C         -2.79510000  *   1.16640000  *  -1.82130000  *
    50       C         -3.40840000  *   0.72090000  *  -0.59480000  *
    51       C         -0.36760000  *  -3.46430000  *  -0.59480000  *
    52       C          0.24560000  *  -3.01880000  *  -1.82130000  *
    53       C         -0.74660000  *  -2.29790000  *  -2.57930000  *
    54       C         -1.97310000  *  -2.29790000  *  -1.82130000  *
    55       C         -1.73890000  *  -3.01880000  *  -0.59480000  *
    56       C          3.18120000  *  -1.42020000  *  -0.59480000  *
    57       C          2.94690000  *  -0.69930000  *  -1.82130000  *
    58       C          1.95470000  *  -1.42020000  *  -2.57930000  *
    59       C          1.57570000  *  -2.58660000  *  -1.82130000  *
    60       C          2.33370000  *  -2.58660000  *  -0.59480000  *

                             CARTESIAN COORDINATES

   1    C        1.226500000     0.000000000     3.314500000
   2    C        0.379000000     1.166400000     3.314500000
   3    C       -0.992200000     0.720900000     3.314500000
   4    C       -0.992200000    -0.720900000     3.314500000
   5    C        0.379000000    -1.166400000     3.314500000
   6    C        3.408400000     0.720900000     0.594800000
   7    C        2.795100000     1.166400000     1.821300000
   8    C        2.416100000     0.000000000     2.579300000
   9    C        2.795100000    -1.166400000     1.821300000
  10    C        3.408400000    -0.720900000     0.594800000
  11    C        0.367600000     3.464300000     0.594800000
  12    C       -0.245600000     3.018800000     1.821300000
  13    C        0.746600000     2.297900000     2.579300000
  14    C        1.973100000     2.297900000     1.821300000
  15    C        1.738900000     3.018800000     0.594800000
  16    C       -3.181200000     1.420200000     0.594800000
  17    C       -2.946900000     0.699300000     1.821300000
  18    C       -1.954700000     1.420200000     2.579300000
  19    C       -1.575700000     2.586600000     1.821300000
  20    C       -2.333700000     2.586600000     0.594800000
  21    C       -2.333700000    -2.586600000     0.594800000
  22    C       -1.575700000    -2.586600000     1.821300000
  23    C       -1.954700000    -1.420200000     2.579300000
  24    C       -2.946900000    -0.699300000     1.821300000
  25    C       -3.181200000    -1.420200000     0.594800000
  26    C        1.738900000    -3.018800000     0.594800000
  27    C        1.973100000    -2.297900000     1.821300000
  28    C        0.746600000    -2.297900000     2.579300000
  29    C       -0.245600000    -3.018800000     1.821300000
  30    C        0.367600000    -3.464300000     0.594800000
  31    C        0.992200000     0.720900000    -3.314500000
  32    C       -0.379000000     1.166400000    -3.314500000
  33    C       -1.226500000     0.000000000    -3.314500000
  34    C       -0.379000000    -1.166400000    -3.314500000
  35    C        0.992200000    -0.720900000    -3.314500000
  36    C        2.333700000     2.586600000    -0.594800000
  37    C        1.575700000     2.586600000    -1.821300000
  38    C        1.954700000     1.420200000    -2.579300000
  39    C        2.946900000     0.699300000    -1.821300000
  40    C        3.181200000     1.420200000    -0.594800000
  41    C       -1.738900000     3.018800000    -0.594800000
  42    C       -1.973100000     2.297900000    -1.821300000
  43    C       -0.746600000     2.297900000    -2.579300000
  44    C        0.245600000     3.018800000    -1.821300000
  45    C       -0.367600000     3.464300000    -0.594800000
  46    C       -3.408400000    -0.720900000    -0.594800000
  47    C       -2.795100000    -1.166400000    -1.821300000
  48    C       -2.416100000     0.000000000    -2.579300000
  49    C       -2.795100000     1.166400000    -1.821300000
  50    C       -3.408400000     0.720900000    -0.594800000
  51    C       -0.367600000    -3.464300000    -0.594800000
  52    C        0.245600000    -3.018800000    -1.821300000
  53    C       -0.746600000    -2.297900000    -2.579300000
  54    C       -1.973100000    -2.297900000    -1.821300000
  55    C       -1.738900000    -3.018800000    -0.594800000
  56    C        3.181200000    -1.420200000    -0.594800000
  57    C        2.946900000    -0.699300000    -1.821300000
  58    C        1.954700000    -1.420200000    -2.579300000
  59    C        1.575700000    -2.586600000    -1.821300000
  60    C        2.333700000    -2.586600000    -0.594800000


           Empirical Formula: C60  =    60 atoms



      MOLECULAR POINT GROUP   :   Ih  


                EIGENVECTORS  


   Root No.       1         2         3         4         5         6         7         8

                 1 ag      1 t1u     1 t1u     1 t1u     1 hg      1 hg      1 hg      1 hg  

               -35.541   -34.745   -34.744   -34.744   -33.186   -33.185   -33.185   -33.185
  
  S   C    1    0.1227    0.2075   -0.0002    0.0211    0.2535   -0.0002    0.0091    0.0007
  Px  C    1   -0.0190   -0.0359    0.0002    0.0348   -0.0555   -0.0000    0.0745    0.0002
  Py  C    1    0.0000    0.0000    0.0332   -0.0002   -0.0000    0.0145    0.0000    0.0644
  Pz  C    1   -0.0356   -0.0498   -0.0000   -0.0207   -0.0388    0.0001   -0.0327   -0.0003
  S   C    2    0.1227    0.1975    0.0626   -0.0239    0.2149    0.0529   -0.0769    0.1071
  Px  C    2   -0.0059   -0.0057   -0.0019    0.0346   -0.0020   -0.0218    0.0512    0.0090
  Py  C    2   -0.0181   -0.0400    0.0268    0.0068   -0.0780    0.0195    0.0105    0.0423
  Pz  C    2   -0.0356   -0.0450   -0.0296    0.0004   -0.0215   -0.0174    0.0083   -0.0434
  S   C    3    0.1227    0.1812    0.0382   -0.0960    0.1759    0.0620   -0.1408    0.0451
  Px  C    3    0.0154    0.0400    0.0034    0.0202    0.0730   -0.0071   -0.0080    0.0153
  Py  C    3   -0.0112   -0.0237    0.0308    0.0087   -0.0444    0.0472    0.0135    0.0353
  Pz  C    3   -0.0356   -0.0374   -0.0181    0.0343   -0.0080   -0.0288    0.0281   -0.0141
  S   C    4    0.1227    0.1810   -0.0397   -0.0957    0.1758   -0.0621   -0.1410   -0.0474
  Px  C    4    0.0154    0.0400   -0.0034    0.0202    0.0730    0.0070   -0.0080   -0.0142
  Py  C    4    0.0112    0.0238    0.0306   -0.0090    0.0445    0.0471   -0.0134    0.0349
  Pz  C    4   -0.0356   -0.0373    0.0185    0.0342   -0.0080    0.0288    0.0282    0.0149
  S   C    5    0.1227    0.1973   -0.0634   -0.0233    0.2149   -0.0531   -0.0772   -0.1064
  Px  C    5   -0.0059   -0.0057    0.0023    0.0346   -0.0020    0.0217    0.0512   -0.0080
  Py  C    5    0.0181    0.0401    0.0266   -0.0070    0.0780    0.0193   -0.0104    0.0418
  Pz  C    5   -0.0356   -0.0450    0.0297    0.0001   -0.0215    0.0174    0.0084    0.0430
  S   C    6    0.1226    0.0837    0.0397    0.1868   -0.0269   -0.0584    0.2374    0.0502
  Px  C    6   -0.0387   -0.0271   -0.0181   -0.0485    0.0025    0.0210   -0.0501   -0.0213
  Py  C    6   -0.0112   -0.0132    0.0306   -0.0217   -0.0120   -0.0441   -0.0473    0.0390
  Pz  C    6   -0.0021    0.0355   -0.0053   -0.0146    0.0435    0.0196    0.0395    0.0059
  S   C    7    0.1226    0.1411    0.0635    0.1398    0.0579   -0.0446    0.2158    0.1112
  Px  C    7   -0.0292   -0.0391   -0.0255   -0.0111   -0.0259    0.0024   -0.0014   -0.0432
  Py  C    7   -0.0181   -0.0273    0.0266   -0.0302   -0.0332   -0.0159   -0.0732    0.0436
  Pz  C    7   -0.0211   -0.0008   -0.0153   -0.0399    0.0370    0.0263   -0.0408   -0.0136
  S   C    8    0.1227    0.1765    0.0003    0.1111    0.1531   -0.0004    0.1965    0.0008
  Px  C    8   -0.0233   -0.0434    0.0001    0.0093   -0.0597    0.0000    0.0304   -0.0003
  Py  C    8    0.0000    0.0000    0.0332   -0.0002   -0.0000   -0.0093    0.0000    0.0653
  Pz  C    8   -0.0329   -0.0294   -0.0002   -0.0507    0.0066    0.0001   -0.0853    0.0000
  S   C    9    0.1226    0.1410   -0.0626    0.1404    0.0581    0.0440    0.2158   -0.1101
  Px  C    9   -0.0292   -0.0390    0.0256   -0.0113   -0.0259   -0.0024   -0.0013    0.0424
  Py  C    9    0.0181    0.0274    0.0268    0.0300    0.0332   -0.0161    0.0732    0.0433
  Pz  C    9   -0.0211   -0.0007    0.0149   -0.0401    0.0369   -0.0262   -0.0408    0.0141
  S   C   10    0.1226    0.0836   -0.0382    0.1872   -0.0268    0.0579    0.2375   -0.0519
  Px  C   10   -0.0387   -0.0271    0.0177   -0.0487    0.0025   -0.0209   -0.0501    0.0214
  Py  C   10    0.0112    0.0133    0.0308    0.0214    0.0119   -0.0442    0.0472    0.0386
  Pz  C   10   -0.0021    0.0356    0.0050   -0.0146    0.0434   -0.0198    0.0394   -0.0045
  S   C   11    0.1226    0.0453    0.2031    0.0145   -0.1385    0.0046   -0.0915    0.1087
  Px  C   11   -0.0013    0.0105   -0.0046    0.0335    0.0078   -0.0534    0.0157    0.0475
  Py  C   11   -0.0402   -0.0195   -0.0576   -0.0064    0.0273   -0.0016    0.0185   -0.0392
  Pz  C   11   -0.0021    0.0376   -0.0078   -0.0055    0.0233    0.0370    0.0056    0.0719
  S   C   12    0.1226    0.1026    0.1787   -0.0323   -0.0672    0.1156   -0.1027    0.1637
  Px  C   12    0.0082    0.0167    0.0161    0.0373    0.0063   -0.0496    0.0087    0.0610
  Py  C   12   -0.0333   -0.0378   -0.0329    0.0150   -0.0134   -0.0349    0.0212   -0.0382
  Pz  C   12   -0.0212    0.0083   -0.0420    0.0006    0.0524   -0.0026    0.0111    0.0034
  S   C   13    0.1226    0.1543    0.1398    0.0112    0.0559    0.0573   -0.0499    0.2148
  Px  C   13   -0.0072   -0.0068   -0.0097    0.0323   -0.0002   -0.0421    0.0471    0.0059
  Py  C   13   -0.0222   -0.0433    0.0028   -0.0004   -0.0680   -0.0059   -0.0055   -0.0068
  Pz  C   13   -0.0329   -0.0210   -0.0532   -0.0127    0.0401   -0.0005    0.0070   -0.0599
  S   C   14    0.1226    0.1289    0.1402    0.0849   -0.0008   -0.0401    0.0555    0.2187
  Px  C   14   -0.0262   -0.0284   -0.0430    0.0111    0.0035   -0.0229    0.0457   -0.0545
  Py  C   14   -0.0222   -0.0344    0.0027   -0.0264   -0.0416    0.0055   -0.0547   -0.0073
  Pz  C   14   -0.0212    0.0020   -0.0328   -0.0275    0.0470    0.0359   -0.0093   -0.0246
  S   C   15    0.1226    0.0615    0.1793    0.0869   -0.1132   -0.1019   -0.0175    0.1725
  Px  C   15   -0.0226   -0.0101   -0.0446    0.0131    0.0246   -0.0218    0.0422   -0.0225
  Py  C   15   -0.0333   -0.0207   -0.0332   -0.0348    0.0102    0.0317   -0.0225   -0.0409
  Pz  C   15   -0.0021    0.0354   -0.0046   -0.0150    0.0295    0.0497    0.0123    0.0523
  S   C   16    0.1226   -0.0012    0.0856   -0.1902   -0.0973    0.1647    0.0865   -0.0571
  Px  C   16    0.0379    0.0074    0.0363   -0.0472   -0.0267    0.0582   -0.0051   -0.0146
  Py  C   16   -0.0137    0.0042    0.0217    0.0302   -0.0035    0.0335   -0.0398   -0.0114
  Pz  C   16   -0.0021    0.0388    0.0003   -0.0003   -0.0089    0.0209   -0.0614    0.0268
  S   C   17    0.1226    0.0662    0.0466   -0.1922   -0.0647    0.1066   -0.0111   -0.0071
  Px  C   17    0.0342    0.0325    0.0172   -0.0408    0.0019    0.0332   -0.0333    0.0044
  Py  C   17   -0.0025   -0.0029    0.0397    0.0083   -0.0102    0.0861   -0.0079   -0.0031
  Pz  C   17   -0.0212    0.0168   -0.0106    0.0379    0.0347   -0.0199   -0.0464    0.0112
  S   C   18    0.1226    0.1180    0.0857   -0.1491    0.0050    0.1687   -0.1045    0.0401
  Px  C   18    0.0189    0.0375    0.0159    0.0029    0.0438    0.0098   -0.0365    0.0304
  Py  C   18   -0.0137   -0.0219    0.0217    0.0212   -0.0313    0.0343    0.0121    0.0098
  Pz  C   18   -0.0329   -0.0072   -0.0326    0.0481    0.0456   -0.0612   -0.0011    0.0049
  S   C   19    0.1226    0.0826    0.1489   -0.1204   -0.0791    0.2179   -0.0934    0.0510
  Px  C   19    0.0130    0.0223    0.0266    0.0209    0.0095   -0.0101   -0.0285    0.0490
  Py  C   19   -0.0318   -0.0283   -0.0180    0.0437   -0.0041   -0.0487    0.0154   -0.0057
  Pz  C   19   -0.0212    0.0129   -0.0352    0.0207    0.0480   -0.0322   -0.0050    0.0253
  S   C   20    0.1226    0.0090    0.1489   -0.1458   -0.1249    0.2131   -0.0080   -0.0691
  Px  C   20    0.0247    0.0068    0.0434   -0.0063   -0.0250    0.0243   -0.0338   -0.0003
  Py  C   20   -0.0318   -0.0046   -0.0180    0.0518    0.0152   -0.0480   -0.0206    0.0109
  Pz  C   20   -0.0021    0.0374   -0.0080   -0.0062    0.0024    0.0278   -0.0327    0.0519
  S   C   21    0.1226    0.0085   -0.1503   -0.1444   -0.1253   -0.2128   -0.0085    0.0683
  Px  C   21    0.0247    0.0067   -0.0435   -0.0058   -0.0250   -0.0241   -0.0339    0.0013
  Py  C   21    0.0318    0.0045   -0.0185   -0.0517   -0.0153   -0.0481    0.0205    0.0096
  Pz  C   21   -0.0021    0.0374    0.0078   -0.0063    0.0024   -0.0278   -0.0328   -0.0531
  S   C   22    0.1226    0.0822   -0.1503   -0.1190   -0.0795   -0.2176   -0.0940   -0.0519
  Px  C   22    0.0130    0.0222   -0.0264    0.0211    0.0095    0.0102   -0.0285   -0.0476
  Py  C   22    0.0318    0.0282   -0.0185   -0.0435    0.0040   -0.0487   -0.0156   -0.0071
  Pz  C   22   -0.0212    0.0130    0.0354    0.0203    0.0481    0.0321   -0.0050   -0.0256
  S   C   23    0.1226    0.1177   -0.0874   -0.1483    0.0047   -0.1686   -0.1049   -0.0439
  Px  C   23    0.0189    0.0375   -0.0160    0.0031    0.0438   -0.0098   -0.0366   -0.0299
  Py  C   23    0.0137    0.0220    0.0214   -0.0214    0.0314    0.0342   -0.0120    0.0087
  Pz  C   23   -0.0329   -0.0071    0.0331    0.0478    0.0457    0.0611   -0.0010   -0.0039
  S   C   24    0.1226    0.0660   -0.0486   -0.1918   -0.0649   -0.1066   -0.0113    0.0015
  Px  C   24    0.0342    0.0324   -0.0177   -0.0406    0.0018   -0.0331   -0.0334   -0.0055
  Py  C   24    0.0025    0.0030    0.0396   -0.0087    0.0103    0.0861    0.0081   -0.0037
  Pz  C   24   -0.0212    0.0168    0.0110    0.0378    0.0348    0.0200   -0.0463   -0.0107
  S   C   25    0.1226   -0.0015   -0.0875   -0.1893   -0.0977   -0.1648    0.0861    0.0535
  Px  C   25    0.0379    0.0073   -0.0368   -0.0468   -0.0268   -0.0581   -0.0052    0.0139
  Py  C   25    0.0137   -0.0041    0.0214   -0.0304    0.0036    0.0333    0.0399   -0.0125
  Pz  C   25   -0.0021    0.0388   -0.0005   -0.0003   -0.0090   -0.0207   -0.0615   -0.0279
  S   C   26    0.1226    0.0610   -0.1786    0.0886   -0.1129    0.1022   -0.0174   -0.1696
  Px  C   26   -0.0226   -0.0100    0.0447    0.0127    0.0247    0.0217    0.0422    0.0212
  Py  C   26    0.0333    0.0206   -0.0329    0.0351   -0.0101    0.0317    0.0225   -0.0408
  Pz  C   26   -0.0021    0.0354    0.0044   -0.0151    0.0294   -0.0498    0.0122   -0.0515
  S   C   27    0.1226    0.1285   -0.1398    0.0862   -0.0005    0.0400    0.0554   -0.2158
  Px  C   27   -0.0262   -0.0283    0.0432    0.0107    0.0035    0.0227    0.0458    0.0534
  Py  C   27    0.0222    0.0344    0.0028    0.0264    0.0416    0.0053    0.0547   -0.0074
  Pz  C   27   -0.0212    0.0021    0.0325   -0.0278    0.0470   -0.0360   -0.0093    0.0244
  S   C   28    0.1226    0.1539   -0.1402    0.0125    0.0559   -0.0572   -0.0503   -0.2120
  Px  C   28   -0.0072   -0.0068    0.0100    0.0322   -0.0001    0.0420    0.0472   -0.0054
  Py  C   28    0.0222    0.0433    0.0027    0.0003    0.0680   -0.0061    0.0055   -0.0070
  Pz  C   28   -0.0329   -0.0208    0.0531   -0.0133    0.0400    0.0004    0.0070    0.0588
  S   C   29    0.1226    0.1021   -0.1793   -0.0306   -0.0673   -0.1152   -0.1031   -0.1610
  Px  C   29    0.0082    0.0167   -0.0158    0.0375    0.0065    0.0496    0.0088   -0.0597
  Py  C   29    0.0333    0.0377   -0.0332   -0.0147    0.0133   -0.0348   -0.0213   -0.0382
  Pz  C   29   -0.0212    0.0084    0.0420    0.0002    0.0525    0.0024    0.0111   -0.0043
  S   C   30    0.1226    0.0447   -0.2031    0.0165   -0.1385   -0.0040   -0.0916   -0.1045
  Px  C   30   -0.0013    0.0105    0.0049    0.0335    0.0079    0.0533    0.0157   -0.0475
  Py  C   30    0.0402    0.0193   -0.0576    0.0070   -0.0273   -0.0015   -0.0186   -0.0382
  Pz  C   30   -0.0021    0.0376    0.0076   -0.0055    0.0233   -0.0371    0.0054   -0.0719
  S   C   31    0.1227   -0.1810    0.0397    0.0957    0.1758   -0.0621   -0.1410   -0.0474
  Px  C   31   -0.0154    0.0400   -0.0034    0.0202   -0.0730   -0.0070    0.0080    0.0142
  Py  C   31   -0.0112    0.0238    0.0306   -0.0090   -0.0445   -0.0471    0.0134   -0.0349
  Pz  C   31    0.0356   -0.0373    0.0185    0.0342    0.0080   -0.0288   -0.0282   -0.0149
  S   C   32    0.1227   -0.1973    0.0634    0.0233    0.2149   -0.0531   -0.0772   -0.1064
  Px  C   32    0.0059   -0.0057    0.0023    0.0346    0.0020   -0.0217   -0.0512    0.0080
  Py  C   32   -0.0181    0.0401    0.0266   -0.0070   -0.0780   -0.0193    0.0104   -0.0418
  Pz  C   32    0.0356   -0.0450    0.0297    0.0001    0.0215   -0.0174   -0.0084   -0.0430
  S   C   33    0.1227   -0.2075    0.0002   -0.0211    0.2535   -0.0002    0.0091    0.0007
  Px  C   33    0.0190   -0.0359    0.0002    0.0348    0.0555    0.0000   -0.0745   -0.0002
  Py  C   33   -0.0000    0.0000    0.0332   -0.0002    0.0000   -0.0145   -0.0000   -0.0644
  Pz  C   33    0.0356   -0.0498   -0.0000   -0.0207    0.0388   -0.0001    0.0327    0.0003
  S   C   34    0.1227   -0.1975   -0.0626    0.0239    0.2149    0.0529   -0.0769    0.1071
  Px  C   34    0.0059   -0.0057   -0.0019    0.0346    0.0020    0.0218   -0.0512   -0.0090
  Py  C   34    0.0181   -0.0400    0.0268    0.0068    0.0780   -0.0195   -0.0105   -0.0423
  Pz  C   34    0.0356   -0.0450   -0.0296    0.0004    0.0215    0.0174   -0.0083    0.0434
  S   C   35    0.1227   -0.1812   -0.0382    0.0960    0.1759    0.0620   -0.1408    0.0451
  Px  C   35   -0.0154    0.0400    0.0034    0.0202   -0.0730    0.0071    0.0080   -0.0153
  Py  C   35    0.0112   -0.0237    0.0308    0.0087    0.0444   -0.0472   -0.0135   -0.0353
  Pz  C   35    0.0356   -0.0374   -0.0181    0.0343    0.0080    0.0288   -0.0281    0.0141
  S   C   36    0.1226   -0.0085    0.1503    0.1444   -0.1253   -0.2128   -0.0085    0.0683
  Px  C   36   -0.0247    0.0067   -0.0435   -0.0058    0.0250    0.0241    0.0339   -0.0013
  Py  C   36   -0.0318    0.0045   -0.0185   -0.0517    0.0153    0.0481   -0.0205   -0.0096
  Pz  C   36    0.0021    0.0374    0.0078   -0.0063   -0.0024    0.0278    0.0328    0.0531
  S   C   37    0.1226   -0.0822    0.1503    0.1190   -0.0795   -0.2176   -0.0940   -0.0519
  Px  C   37   -0.0130    0.0222   -0.0264    0.0211   -0.0095   -0.0102    0.0285    0.0476
  Py  C   37   -0.0318    0.0282   -0.0185   -0.0435   -0.0040    0.0487    0.0156    0.0071
  Pz  C   37    0.0212    0.0130    0.0354    0.0203   -0.0481   -0.0321    0.0050    0.0256
  S   C   38    0.1226   -0.1177    0.0874    0.1483    0.0047   -0.1686   -0.1049   -0.0439
  Px  C   38   -0.0189    0.0375   -0.0160    0.0031   -0.0438    0.0098    0.0366    0.0299
  Py  C   38   -0.0137    0.0220    0.0214   -0.0214   -0.0314   -0.0342    0.0120   -0.0087
  Pz  C   38    0.0329   -0.0071    0.0331    0.0478   -0.0457   -0.0611    0.0010    0.0039
  S   C   39    0.1226   -0.0660    0.0486    0.1918   -0.0649   -0.1066   -0.0113    0.0015
  Px  C   39   -0.0342    0.0324   -0.0177   -0.0406   -0.0018    0.0331    0.0334    0.0055
  Py  C   39   -0.0025    0.0030    0.0396   -0.0087   -0.0103   -0.0861   -0.0081    0.0037
  Pz  C   39    0.0212    0.0168    0.0110    0.0378   -0.0348   -0.0200    0.0463    0.0107
  S   C   40    0.1226    0.0015    0.0875    0.1893   -0.0977   -0.1648    0.0861    0.0535
  Px  C   40   -0.0379    0.0073   -0.0368   -0.0468    0.0268    0.0581    0.0052   -0.0139
  Py  C   40   -0.0137   -0.0041    0.0214   -0.0304   -0.0036   -0.0333   -0.0399    0.0125
  Pz  C   40    0.0021    0.0388   -0.0005   -0.0003    0.0090    0.0207    0.0615    0.0279
  S   C   41    0.1226   -0.0610    0.1786   -0.0886   -0.1129    0.1022   -0.0174   -0.1696
  Px  C   41    0.0226   -0.0100    0.0447    0.0127   -0.0247   -0.0217   -0.0422   -0.0212
  Py  C   41   -0.0333    0.0206   -0.0329    0.0351    0.0101   -0.0317   -0.0225    0.0408
  Pz  C   41    0.0021    0.0354    0.0044   -0.0151   -0.0294    0.0498   -0.0122    0.0515
  S   C   42    0.1226   -0.1285    0.1398   -0.0862   -0.0005    0.0400    0.0554   -0.2158
  Px  C   42    0.0262   -0.0283    0.0432    0.0107   -0.0035   -0.0227   -0.0458   -0.0534
  Py  C   42   -0.0222    0.0344    0.0028    0.0264   -0.0416   -0.0053   -0.0547    0.0074
  Pz  C   42    0.0212    0.0021    0.0325   -0.0278   -0.0470    0.0360    0.0093   -0.0244
  S   C   43    0.1226   -0.1539    0.1402   -0.0125    0.0559   -0.0572   -0.0503   -0.2120
  Px  C   43    0.0072   -0.0068    0.0100    0.0322    0.0001   -0.0420   -0.0472    0.0054
  Py  C   43   -0.0222    0.0433    0.0027    0.0003   -0.0680    0.0061   -0.0055    0.0070
  Pz  C   43    0.0329   -0.0208    0.0531   -0.0133   -0.0400   -0.0004   -0.0070   -0.0588
  S   C   44    0.1226   -0.1021    0.1793    0.0306   -0.0673   -0.1152   -0.1031   -0.1610
  Px  C   44   -0.0082    0.0167   -0.0158    0.0375   -0.0065   -0.0496   -0.0088    0.0597
  Py  C   44   -0.0333    0.0377   -0.0332   -0.0147   -0.0133    0.0348    0.0213    0.0382
  Pz  C   44    0.0212    0.0084    0.0420    0.0002   -0.0525   -0.0024   -0.0111    0.0043
  S   C   45    0.1226   -0.0447    0.2031   -0.0165   -0.1385   -0.0040   -0.0916   -0.1045
  Px  C   45    0.0013    0.0105    0.0049    0.0335   -0.0079   -0.0533   -0.0157    0.0475
  Py  C   45   -0.0402    0.0193   -0.0576    0.0070    0.0273    0.0015    0.0186    0.0382
  Pz  C   45    0.0021    0.0376    0.0076   -0.0055   -0.0233    0.0371   -0.0054    0.0719
  S   C   46    0.1226   -0.0837   -0.0397   -0.1868   -0.0269   -0.0584    0.2374    0.0502
  Px  C   46    0.0387   -0.0271   -0.0181   -0.0485   -0.0025   -0.0210    0.0501    0.0213
  Py  C   46    0.0112   -0.0132    0.0306   -0.0217    0.0120    0.0441    0.0473   -0.0390
  Pz  C   46    0.0021    0.0355   -0.0053   -0.0146   -0.0435   -0.0196   -0.0395   -0.0059
  S   C   47    0.1226   -0.1411   -0.0635   -0.1398    0.0579   -0.0446    0.2158    0.1112
  Px  C   47    0.0292   -0.0391   -0.0255   -0.0111    0.0259   -0.0024    0.0014    0.0432
  Py  C   47    0.0181   -0.0273    0.0266   -0.0302    0.0332    0.0159    0.0732   -0.0436
  Pz  C   47    0.0211   -0.0008   -0.0153   -0.0399   -0.0370   -0.0263    0.0408    0.0136
  S   C   48    0.1227   -0.1765   -0.0003   -0.1111    0.1531   -0.0004    0.1965    0.0008
  Px  C   48    0.0233   -0.0434    0.0001    0.0093    0.0597   -0.0000   -0.0304    0.0003
  Py  C   48   -0.0000    0.0000    0.0332   -0.0002    0.0000    0.0093   -0.0000   -0.0653
  Pz  C   48    0.0329   -0.0294   -0.0002   -0.0507   -0.0066   -0.0001    0.0853   -0.0000
  S   C   49    0.1226   -0.1410    0.0626   -0.1404    0.0581    0.0440    0.2158   -0.1101
  Px  C   49    0.0292   -0.0390    0.0256   -0.0113    0.0259    0.0024    0.0013   -0.0424
  Py  C   49   -0.0181    0.0274    0.0268    0.0300   -0.0332    0.0161   -0.0732   -0.0433
  Pz  C   49    0.0211   -0.0007    0.0149   -0.0401   -0.0369    0.0262    0.0408   -0.0141
  S   C   50    0.1226   -0.0836    0.0382   -0.1872   -0.0268    0.0579    0.2375   -0.0519
  Px  C   50    0.0387   -0.0271    0.0177   -0.0487   -0.0025    0.0209    0.0501   -0.0214
  Py  C   50   -0.0112    0.0133    0.0308    0.0214   -0.0119    0.0442   -0.0472   -0.0386
  Pz  C   50    0.0021    0.0356    0.0050   -0.0146   -0.0434    0.0198   -0.0394    0.0045
  S   C   51    0.1226   -0.0453   -0.2031   -0.0145   -0.1385    0.0046   -0.0915    0.1087
  Px  C   51    0.0013    0.0105   -0.0046    0.0335   -0.0078    0.0534   -0.0157   -0.0475
  Py  C   51    0.0402   -0.0195   -0.0576   -0.0064   -0.0273    0.0016   -0.0185    0.0392
  Pz  C   51    0.0021    0.0376   -0.0078   -0.0055   -0.0233   -0.0370   -0.0056   -0.0719
  S   C   52    0.1226   -0.1026   -0.1787    0.0323   -0.0672    0.1156   -0.1027    0.1637
  Px  C   52   -0.0082    0.0167    0.0161    0.0373   -0.0063    0.0496   -0.0087   -0.0610
  Py  C   52    0.0333   -0.0378   -0.0329    0.0150    0.0134    0.0349   -0.0212    0.0382
  Pz  C   52    0.0212    0.0083   -0.0420    0.0006   -0.0524    0.0026   -0.0111   -0.0034
  S   C   53    0.1226   -0.1543   -0.1398   -0.0112    0.0559    0.0573   -0.0499    0.2148
  Px  C   53    0.0072   -0.0068   -0.0097    0.0323    0.0002    0.0421   -0.0471   -0.0059
  Py  C   53    0.0222   -0.0433    0.0028   -0.0004    0.0680    0.0059    0.0055    0.0068
  Pz  C   53    0.0329   -0.0210   -0.0532   -0.0127   -0.0401    0.0005   -0.0070    0.0599
  S   C   54    0.1226   -0.1289   -0.1402   -0.0849   -0.0008   -0.0401    0.0555    0.2187
  Px  C   54    0.0262   -0.0284   -0.0430    0.0111   -0.0035    0.0229   -0.0457    0.0545
  Py  C   54    0.0222   -0.0344    0.0027   -0.0264    0.0416   -0.0055    0.0547    0.0073
  Pz  C   54    0.0212    0.0020   -0.0328   -0.0275   -0.0470   -0.0359    0.0093    0.0246
  S   C   55    0.1226   -0.0615   -0.1793   -0.0869   -0.1132   -0.1019   -0.0175    0.1725
  Px  C   55    0.0226   -0.0101   -0.0446    0.0131   -0.0246    0.0218   -0.0422    0.0225
  Py  C   55    0.0333   -0.0207   -0.0332   -0.0348   -0.0102   -0.0317    0.0225    0.0409
  Pz  C   55    0.0021    0.0354   -0.0046   -0.0150   -0.0295   -0.0497   -0.0123   -0.0523
  S   C   56    0.1226    0.0012   -0.0856    0.1902   -0.0973    0.1647    0.0865   -0.0571
  Px  C   56   -0.0379    0.0074    0.0363   -0.0472    0.0267   -0.0582    0.0051    0.0146
  Py  C   56    0.0137    0.0042    0.0217    0.0302    0.0035   -0.0335    0.0398    0.0114
  Pz  C   56    0.0021    0.0388    0.0003   -0.0003    0.0089   -0.0209    0.0614   -0.0268
  S   C   57    0.1226   -0.0662   -0.0466    0.1922   -0.0647    0.1066   -0.0111   -0.0071
  Px  C   57   -0.0342    0.0325    0.0172   -0.0408   -0.0019   -0.0332    0.0333   -0.0044
  Py  C   57    0.0025   -0.0029    0.0397    0.0083    0.0102   -0.0861    0.0079    0.0031
  Pz  C   57    0.0212    0.0168   -0.0106    0.0379   -0.0347    0.0199    0.0464   -0.0112
  S   C   58    0.1226   -0.1180   -0.0857    0.1491    0.0050    0.1687   -0.1045    0.0401
  Px  C   58   -0.0189    0.0375    0.0159    0.0029   -0.0438   -0.0098    0.0365   -0.0304
  Py  C   58    0.0137   -0.0219    0.0217    0.0212    0.0313   -0.0343   -0.0121   -0.0098
  Pz  C   58    0.0329   -0.0072   -0.0326    0.0481   -0.0456    0.0612    0.0011   -0.0049
  S   C   59    0.1226   -0.0826   -0.1489    0.1204   -0.0791    0.2179   -0.0934    0.0510
  Px  C   59   -0.0130    0.0223    0.0266    0.0209   -0.0095    0.0101    0.0285   -0.0490
  Py  C   59    0.0318   -0.0283   -0.0180    0.0437    0.0041    0.0487   -0.0154    0.0057
  Pz  C   59    0.0212    0.0129   -0.0352    0.0207   -0.0480    0.0322    0.0050   -0.0253
  S   C   60    0.1226   -0.0090   -0.1489    0.1458   -0.1249    0.2131   -0.0080   -0.0691
  Px  C   60   -0.0247    0.0068    0.0434   -0.0063    0.0250   -0.0243    0.0338    0.0003
  Py  C   60    0.0318   -0.0046   -0.0180    0.0518   -0.0152    0.0480    0.0206   -0.0109
  Pz  C   60    0.0021    0.0374   -0.0080   -0.0062   -0.0024   -0.0278    0.0327   -0.0519


   Root No.       9        10        11        12        13        14        15        16

                 1 hg      1 t2u     1 t2u     1 t2u     1 gu      1 gu      1 gu      1 gu  

               -33.185   -31.494   -31.493   -31.493   -30.077   -30.077   -30.076   -30.076
  
  S   C    1   -0.0494   -0.1756   -0.0004    0.0705    0.2157    0.0004   -0.0000    0.0003
  Px  C    1   -0.0232    0.1105    0.0004    0.0230    0.0571    0.0001   -0.0000   -0.0143
  Py  C    1    0.0008    0.0001   -0.0276    0.0001    0.0002   -0.0959   -0.0675    0.0000
  Pz  C    1    0.0211   -0.0127   -0.0001   -0.0229   -0.0540   -0.0001    0.0000    0.0038
  S   C    2   -0.0194   -0.1874   -0.0256   -0.0053    0.0605   -0.1957   -0.0551    0.0389
  Px  C    2   -0.0404    0.0332   -0.0284    0.0004    0.1033    0.0226   -0.0395   -0.0051
  Py  C    2   -0.0190    0.0938   -0.0151   -0.0507   -0.0195   -0.0580   -0.0107    0.0243
  Pz  C    2    0.0173   -0.0059    0.0145    0.0210   -0.0144    0.0480    0.0159   -0.0128
  S   C    3    0.1006   -0.1803    0.0399    0.0414   -0.1678   -0.1292    0.0115   -0.0392
  Px  C    3   -0.0429   -0.0883   -0.0259   -0.0118    0.0654   -0.0228   -0.0131    0.0453
  Py  C    3   -0.0198    0.0591    0.0293   -0.0235    0.0189   -0.0911    0.0102    0.0378
  Pz  C    3   -0.0337   -0.0100   -0.0234   -0.0061    0.0413    0.0326   -0.0065    0.0109
  S   C    4    0.0994   -0.1800   -0.0409    0.0416   -0.1682    0.1287   -0.0116   -0.0390
  Px  C    4   -0.0432   -0.0885    0.0253   -0.0119    0.0653    0.0229    0.0132    0.0453
  Py  C    4    0.0208   -0.0593    0.0290    0.0234   -0.0186   -0.0912    0.0101   -0.0379
  Pz  C    4   -0.0333   -0.0101    0.0233   -0.0062    0.0414   -0.0325    0.0065    0.0109
  S   C    5   -0.0221   -0.1876    0.0243   -0.0054    0.0598    0.1959    0.0552    0.0391
  Px  C    5   -0.0406    0.0330    0.0286    0.0003    0.1034   -0.0222    0.0395   -0.0052
  Py  C    5    0.0200   -0.0937   -0.0155    0.0508    0.0197   -0.0579   -0.0108   -0.0243
  Pz  C    5    0.0183   -0.0058   -0.0144    0.0211   -0.0143   -0.0481   -0.0159   -0.0128
  S   C    6    0.0613    0.0962    0.0410    0.1577   -0.1615    0.0542   -0.1174    0.0611
  Px  C    6   -0.0028   -0.0212   -0.0096   -0.0219    0.0091   -0.0133    0.0370    0.0094
  Py  C    6   -0.0135   -0.0247    0.0290   -0.0588    0.0135    0.0405   -0.0824   -0.0399
  Pz  C    6   -0.0570    0.0681   -0.0330    0.0504    0.0703   -0.0117   -0.0105   -0.0551
  S   C    7   -0.0499    0.1351   -0.0242    0.1303    0.0544    0.0145   -0.2030   -0.0464
  Px  C    7    0.0321    0.0006    0.0257    0.0273   -0.0574    0.0188    0.0418    0.0168
  Py  C    7   -0.0102   -0.0293   -0.0156   -0.1025   -0.0226    0.0095   -0.0582   -0.0214
  Pz  C    7   -0.0191   -0.0258   -0.0191   -0.0124    0.0867   -0.0405    0.0295   -0.0012
  S   C    8   -0.0689    0.0725    0.0006    0.1748    0.2137    0.0004   -0.0000   -0.0288
  Px  C    8    0.0196    0.0645    0.0003    0.0219   -0.0745   -0.0001    0.0000    0.0000
  Py  C    8    0.0008    0.0001   -0.0276    0.0001    0.0001   -0.0311   -0.1131    0.0001
  Pz  C    8    0.0030   -0.0725   -0.0004   -0.0594    0.0282    0.0000    0.0000    0.0075
  S   C    9   -0.0526    0.1349    0.0256    0.1302    0.0545   -0.0142    0.2029   -0.0468
  Px  C    9    0.0331    0.0007   -0.0256    0.0274   -0.0573   -0.0190   -0.0418    0.0169
  Py  C    9    0.0113    0.0294   -0.0150    0.1025    0.0226    0.0095   -0.0582    0.0216
  Pz  C    9   -0.0187   -0.0259    0.0189   -0.0125    0.0865    0.0408   -0.0295   -0.0011
  S   C   10    0.0601    0.0965   -0.0398    0.1578   -0.1613   -0.0548    0.1175    0.0608
  Px  C   10   -0.0023   -0.0213    0.0094   -0.0220    0.0091    0.0133   -0.0370    0.0094
  Py  C   10    0.0145    0.0245    0.0293    0.0587   -0.0137    0.0404   -0.0823    0.0401
  Pz  C   10   -0.0571    0.0678    0.0337    0.0503    0.0703    0.0120    0.0104   -0.0551
  S   C   11   -0.1655    0.0526   -0.1332   -0.1238   -0.0147    0.1237    0.1760    0.0009
  Px  C   11    0.0001   -0.0002   -0.0053   -0.0600   -0.0110    0.0041   -0.0529   -0.0933
  Py  C   11    0.0375   -0.0159    0.0252    0.0375    0.0053   -0.0090   -0.0128   -0.0003
  Pz  C   11    0.0023    0.0481   -0.0084   -0.0767   -0.0037   -0.0551   -0.0421    0.0584
  S   C   12   -0.1075    0.0911   -0.0678   -0.1514   -0.0322   -0.0722    0.1210    0.1601
  Px  C   12   -0.0519   -0.0002   -0.0824   -0.0756    0.0203    0.0021   -0.0407   -0.0572
  Py  C   12   -0.0006   -0.0047   -0.0118    0.0181    0.0090    0.0634    0.0079   -0.0250
  Pz  C   12    0.0371   -0.0231    0.0249    0.0056   -0.0052   -0.0839   -0.0535   -0.0098
  S   C   13   -0.1083    0.0213   -0.1083   -0.1537    0.0547   -0.1866   -0.0705    0.0612
  Px  C   13   -0.0196    0.0197   -0.0269    0.0046    0.0479    0.0495   -0.0720   -0.0551
  Py  C   13   -0.0094    0.0521   -0.0107   -0.0379   -0.0375    0.0550    0.0435    0.0037
  Pz  C   13    0.0456   -0.0531    0.0411    0.0655    0.0092   -0.0274   -0.0032   -0.0007
  S   C   14   -0.1193    0.0957   -0.1080   -0.1224    0.0458   -0.0031   -0.1996   -0.0677
  Px  C   14    0.0432   -0.0014    0.0490    0.0796   -0.0164    0.0434   -0.0340   -0.0221
  Py  C   14   -0.0043   -0.0093   -0.0110   -0.0637   -0.0376    0.0222    0.0665    0.0013
  Pz  C   14    0.0086   -0.0195   -0.0058    0.0278    0.0533   -0.0726    0.0078    0.0430
  S   C   15   -0.1163    0.0450   -0.0679   -0.1708   -0.0534    0.1381   -0.0270   -0.1544
  Px  C   15    0.0526   -0.0138    0.0592    0.0417   -0.0160   -0.0022   -0.0816   -0.0148
  Py  C   15    0.0039   -0.0096   -0.0119    0.0161    0.0124   -0.0140    0.0623    0.0235
  Pz  C   15   -0.0298    0.0543   -0.0623   -0.0379    0.0231   -0.0446   -0.0539    0.0530
  S   C   16    0.1394    0.0715    0.1752    0.0029    0.1535    0.0807   -0.1090   -0.0676
  Px  C   16    0.0239    0.0268    0.0510    0.0225    0.0002    0.0168   -0.0082    0.0254
  Py  C   16   -0.0411    0.0079    0.0247    0.0378   -0.0316    0.0205   -0.0038    0.0974
  Pz  C   16    0.0459    0.0663    0.0473    0.0404   -0.0512   -0.0346    0.0550   -0.0373
  S   C   17    0.2259    0.1222    0.1351    0.0513   -0.0142   -0.0083   -0.0121   -0.2147
  Px  C   17    0.0434    0.0140    0.0347    0.0216   -0.0587   -0.0197    0.0083   -0.0094
  Py  C   17   -0.0239    0.0088    0.1051    0.0037    0.0052   -0.0052   -0.0073    0.0776
  Pz  C   17   -0.0197   -0.0212   -0.0215    0.0166   -0.0931   -0.0261    0.0217    0.0144
  S   C   18    0.1605    0.0522    0.1752    0.0489   -0.1610   -0.1300    0.0388   -0.0470
  Px  C   18   -0.0203   -0.0517   -0.0195   -0.0155   -0.0395   -0.0629    0.0183    0.0503
  Py  C   18   -0.0462    0.0325    0.0247   -0.0208    0.0442   -0.0106    0.0182    0.0923
  Pz  C   18   -0.0384   -0.0648   -0.0667   -0.0116   -0.0233   -0.0164   -0.0055   -0.0030
  S   C   19    0.0413    0.1148    0.1503    0.0044   -0.0535   -0.0631    0.1057    0.1688
  Px  C   19   -0.0563   -0.0129   -0.0710   -0.0528   -0.0188   -0.0420    0.0435    0.0500
  Py  C   19   -0.0553   -0.0153   -0.0672   -0.0166    0.0293    0.0410    0.0140    0.0298
  Pz  C   19    0.0162   -0.0269   -0.0098   -0.0192   -0.0412   -0.0779   -0.0101   -0.0466
  S   C   20    0.0309    0.0835    0.1504    0.0789    0.0753    0.1206   -0.0233    0.1605
  Px  C   20   -0.0370    0.0082   -0.0230    0.0176   -0.0198    0.0094    0.0575    0.0671
  Py  C   20   -0.0513   -0.0226   -0.0672    0.0008   -0.0252   -0.0008    0.0433    0.0334
  Pz  C   20    0.0507    0.0564    0.0678   -0.0223   -0.0381   -0.0569    0.0564   -0.0192
  S   C   21    0.0325    0.0845   -0.1495    0.0794    0.0757   -0.1206    0.0236    0.1603
  Px  C   21   -0.0370    0.0080    0.0231    0.0175   -0.0198   -0.0096   -0.0574    0.0672
  Py  C   21    0.0515    0.0230   -0.0670   -0.0005    0.0252   -0.0006    0.0432   -0.0334
  Pz  C   21    0.0494    0.0568   -0.0675   -0.0220   -0.0383    0.0568   -0.0564   -0.0190
  S   C   22    0.0399    0.1158   -0.1496    0.0050   -0.0538    0.0627   -0.1054    0.1691
  Px  C   22   -0.0575   -0.0134    0.0707   -0.0531   -0.0190    0.0418   -0.0434    0.0501
  Py  C   22    0.0551    0.0157   -0.0670    0.0169   -0.0295    0.0409    0.0139   -0.0298
  Pz  C   22    0.0156   -0.0269    0.0095   -0.0192   -0.0414    0.0778    0.0100   -0.0465
  S   C   23    0.1594    0.0534   -0.1746    0.0496   -0.1614    0.1295   -0.0389   -0.0468
  Px  C   23   -0.0210   -0.0519    0.0191   -0.0156   -0.0397    0.0627   -0.0182    0.0504
  Py  C   23    0.0464   -0.0327    0.0245    0.0207   -0.0441   -0.0107    0.0180   -0.0924
  Pz  C   23   -0.0385   -0.0653    0.0663   -0.0118   -0.0233    0.0163    0.0055   -0.0030
  S   C   24    0.2260    0.1231   -0.1341    0.0518   -0.0143    0.0085    0.0117   -0.2147
  Px  C   24    0.0433    0.0142   -0.0346    0.0217   -0.0588    0.0195   -0.0083   -0.0094
  Py  C   24    0.0239   -0.0095    0.1050   -0.0041   -0.0051   -0.0052   -0.0075   -0.0776
  Pz  C   24   -0.0199   -0.0214    0.0214    0.0165   -0.0932    0.0258   -0.0216    0.0144
  S   C   25    0.1407    0.0727   -0.1747    0.0036    0.1537   -0.0801    0.1089   -0.0679
  Px  C   25    0.0242    0.0272   -0.0507    0.0227    0.0003   -0.0168    0.0083    0.0254
  Py  C   25    0.0408   -0.0080    0.0245   -0.0379    0.0315    0.0207   -0.0040   -0.0974
  Pz  C   25    0.0452    0.0666   -0.0467    0.0406   -0.0513    0.0345   -0.0551   -0.0372
  S   C   26   -0.1205    0.0446    0.0675   -0.1711   -0.0529   -0.1381    0.0268   -0.1547
  Px  C   26    0.0532   -0.0134   -0.0591    0.0419   -0.0160    0.0022    0.0815   -0.0150
  Py  C   26   -0.0049    0.0097   -0.0119   -0.0160   -0.0123   -0.0140    0.0623   -0.0237
  Pz  C   26   -0.0311    0.0539    0.0625   -0.0381    0.0229    0.0446    0.0540    0.0530
  S   C   27   -0.1247    0.0950    0.1082   -0.1228    0.0458    0.0033    0.1994   -0.0681
  Px  C   27    0.0446   -0.0011   -0.0487    0.0798   -0.0162   -0.0434    0.0339   -0.0222
  Py  C   27    0.0041    0.0094   -0.0106    0.0638    0.0375    0.0224    0.0665   -0.0014
  Pz  C   27    0.0091   -0.0196    0.0058    0.0278    0.0531    0.0727   -0.0077    0.0431
  S   C   28   -0.1137    0.0206    0.1079   -0.1541    0.0540    0.1867    0.0706    0.0613
  Px  C   28   -0.0197    0.0195    0.0271    0.0045    0.0481   -0.0493    0.0719   -0.0553
  Py  C   28    0.0093   -0.0521   -0.0109    0.0379    0.0373    0.0551    0.0435   -0.0037
  Pz  C   28    0.0471   -0.0528   -0.0411    0.0656    0.0091    0.0275    0.0032   -0.0007
  S   C   29   -0.1116    0.0906    0.0678   -0.1517   -0.0324    0.0719   -0.1207    0.1604
  Px  C   29   -0.0534   -0.0007    0.0821   -0.0760    0.0203   -0.0020    0.0405   -0.0573
  Py  C   29   -0.0003    0.0048   -0.0119   -0.0181   -0.0092    0.0633    0.0080    0.0251
  Pz  C   29    0.0370   -0.0229   -0.0251    0.0057   -0.0055    0.0839    0.0534   -0.0098
  S   C   30   -0.1681    0.0517    0.1330   -0.1243   -0.0143   -0.1238   -0.1760    0.0011
  Px  C   30   -0.0010   -0.0003    0.0051   -0.0600   -0.0109   -0.0040    0.0527   -0.0934
  Py  C   30   -0.0385    0.0157    0.0252   -0.0376   -0.0053   -0.0090   -0.0128    0.0004
  Pz  C   30    0.0005    0.0480    0.0085   -0.0768   -0.0039    0.0550    0.0422    0.0584
  S   C   31    0.0994    0.1800    0.0409   -0.0416    0.1682   -0.1287    0.0116    0.0390
  Px  C   31    0.0432   -0.0885    0.0253   -0.0119    0.0653    0.0229    0.0132    0.0453
  Py  C   31   -0.0208   -0.0593    0.0290    0.0234   -0.0186   -0.0912    0.0101   -0.0379
  Pz  C   31    0.0333   -0.0101    0.0233   -0.0062    0.0414   -0.0325    0.0065    0.0109
  S   C   32   -0.0221    0.1876   -0.0243    0.0054   -0.0598   -0.1959   -0.0552   -0.0391
  Px  C   32    0.0406    0.0330    0.0286    0.0003    0.1034   -0.0222    0.0395   -0.0052
  Py  C   32   -0.0200   -0.0937   -0.0155    0.0508    0.0197   -0.0579   -0.0108   -0.0243
  Pz  C   32   -0.0183   -0.0058   -0.0144    0.0211   -0.0143   -0.0481   -0.0159   -0.0128
  S   C   33   -0.0494    0.1756    0.0004   -0.0705   -0.2157   -0.0004    0.0000   -0.0003
  Px  C   33    0.0232    0.1105    0.0004    0.0230    0.0571    0.0001   -0.0000   -0.0143
  Py  C   33   -0.0008    0.0001   -0.0276    0.0001    0.0002   -0.0959   -0.0675    0.0000
  Pz  C   33   -0.0211   -0.0127   -0.0001   -0.0229   -0.0540   -0.0001    0.0000    0.0038
  S   C   34   -0.0194    0.1874    0.0256    0.0053   -0.0605    0.1957    0.0551   -0.0389
  Px  C   34    0.0404    0.0332   -0.0284    0.0004    0.1033    0.0226   -0.0395   -0.0051
  Py  C   34    0.0190    0.0938   -0.0151   -0.0507   -0.0195   -0.0580   -0.0107    0.0243
  Pz  C   34   -0.0173   -0.0059    0.0145    0.0210   -0.0144    0.0480    0.0159   -0.0128
  S   C   35    0.1006    0.1803   -0.0399   -0.0414    0.1678    0.1292   -0.0115    0.0392
  Px  C   35    0.0429   -0.0883   -0.0259   -0.0118    0.0654   -0.0228   -0.0131    0.0453
  Py  C   35    0.0198    0.0591    0.0293   -0.0235    0.0189   -0.0911    0.0102    0.0378
  Pz  C   35    0.0337   -0.0100   -0.0234   -0.0061    0.0413    0.0326   -0.0065    0.0109
  S   C   36    0.0325   -0.0845    0.1495   -0.0794   -0.0757    0.1206   -0.0236   -0.1603
  Px  C   36    0.0370    0.0080    0.0231    0.0175   -0.0198   -0.0096   -0.0574    0.0672
  Py  C   36   -0.0515    0.0230   -0.0670   -0.0005    0.0252   -0.0006    0.0432   -0.0334
  Pz  C   36   -0.0494    0.0568   -0.0675   -0.0220   -0.0383    0.0568   -0.0564   -0.0190
  S   C   37    0.0399   -0.1158    0.1496   -0.0050    0.0538   -0.0627    0.1054   -0.1691
  Px  C   37    0.0575   -0.0134    0.0707   -0.0531   -0.0190    0.0418   -0.0434    0.0501
  Py  C   37   -0.0551    0.0157   -0.0670    0.0169   -0.0295    0.0409    0.0139   -0.0298
  Pz  C   37   -0.0156   -0.0269    0.0095   -0.0192   -0.0414    0.0778    0.0100   -0.0465
  S   C   38    0.1594   -0.0534    0.1746   -0.0496    0.1614   -0.1295    0.0389    0.0468
  Px  C   38    0.0210   -0.0519    0.0191   -0.0156   -0.0397    0.0627   -0.0182    0.0504
  Py  C   38   -0.0464   -0.0327    0.0245    0.0207   -0.0441   -0.0107    0.0180   -0.0924
  Pz  C   38    0.0385   -0.0653    0.0663   -0.0118   -0.0233    0.0163    0.0055   -0.0030
  S   C   39    0.2260   -0.1231    0.1341   -0.0518    0.0143   -0.0085   -0.0117    0.2147
  Px  C   39   -0.0433    0.0142   -0.0346    0.0217   -0.0588    0.0195   -0.0083   -0.0094
  Py  C   39   -0.0239   -0.0095    0.1050   -0.0041   -0.0051   -0.0052   -0.0075   -0.0776
  Pz  C   39    0.0199   -0.0214    0.0214    0.0165   -0.0932    0.0258   -0.0216    0.0144
  S   C   40    0.1407   -0.0727    0.1747   -0.0036   -0.1537    0.0801   -0.1089    0.0679
  Px  C   40   -0.0242    0.0272   -0.0507    0.0227    0.0003   -0.0168    0.0083    0.0254
  Py  C   40   -0.0408   -0.0080    0.0245   -0.0379    0.0315    0.0207   -0.0040   -0.0974
  Pz  C   40   -0.0452    0.0666   -0.0467    0.0406   -0.0513    0.0345   -0.0551   -0.0372
  S   C   41   -0.1205   -0.0446   -0.0675    0.1711    0.0529    0.1381   -0.0268    0.1547
  Px  C   41   -0.0532   -0.0134   -0.0591    0.0419   -0.0160    0.0022    0.0815   -0.0150
  Py  C   41    0.0049    0.0097   -0.0119   -0.0160   -0.0123   -0.0140    0.0623   -0.0237
  Pz  C   41    0.0311    0.0539    0.0625   -0.0381    0.0229    0.0446    0.0540    0.0530
  S   C   42   -0.1247   -0.0950   -0.1082    0.1228   -0.0458   -0.0033   -0.1994    0.0681
  Px  C   42   -0.0446   -0.0011   -0.0487    0.0798   -0.0162   -0.0434    0.0339   -0.0222
  Py  C   42   -0.0041    0.0094   -0.0106    0.0638    0.0375    0.0224    0.0665   -0.0014
  Pz  C   42   -0.0091   -0.0196    0.0058    0.0278    0.0531    0.0727   -0.0077    0.0431
  S   C   43   -0.1137   -0.0206   -0.1079    0.1541   -0.0540   -0.1867   -0.0706   -0.0613
  Px  C   43    0.0197    0.0195    0.0271    0.0045    0.0481   -0.0493    0.0719   -0.0553
  Py  C   43   -0.0093   -0.0521   -0.0109    0.0379    0.0373    0.0551    0.0435   -0.0037
  Pz  C   43   -0.0471   -0.0528   -0.0411    0.0656    0.0091    0.0275    0.0032   -0.0007
  S   C   44   -0.1116   -0.0906   -0.0678    0.1517    0.0324   -0.0719    0.1207   -0.1604
  Px  C   44    0.0534   -0.0007    0.0821   -0.0760    0.0203   -0.0020    0.0405   -0.0573
  Py  C   44    0.0003    0.0048   -0.0119   -0.0181   -0.0092    0.0633    0.0080    0.0251
  Pz  C   44   -0.0370   -0.0229   -0.0251    0.0057   -0.0055    0.0839    0.0534   -0.0098
  S   C   45   -0.1681   -0.0517   -0.1330    0.1243    0.0143    0.1238    0.1760   -0.0011
  Px  C   45    0.0010   -0.0003    0.0051   -0.0600   -0.0109   -0.0040    0.0527   -0.0934
  Py  C   45    0.0385    0.0157    0.0252   -0.0376   -0.0053   -0.0090   -0.0128    0.0004
  Pz  C   45   -0.0005    0.0480    0.0085   -0.0768   -0.0039    0.0550    0.0422    0.0584
  S   C   46    0.0613   -0.0962   -0.0410   -0.1577    0.1615   -0.0542    0.1174   -0.0611
  Px  C   46    0.0028   -0.0212   -0.0096   -0.0219    0.0091   -0.0133    0.0370    0.0094
  Py  C   46    0.0135   -0.0247    0.0290   -0.0588    0.0135    0.0405   -0.0824   -0.0399
  Pz  C   46    0.0570    0.0681   -0.0330    0.0504    0.0703   -0.0117   -0.0105   -0.0551
  S   C   47   -0.0499   -0.1351    0.0242   -0.1303   -0.0544   -0.0145    0.2030    0.0464
  Px  C   47   -0.0321    0.0006    0.0257    0.0273   -0.0574    0.0188    0.0418    0.0168
  Py  C   47    0.0102   -0.0293   -0.0156   -0.1025   -0.0226    0.0095   -0.0582   -0.0214
  Pz  C   47    0.0191   -0.0258   -0.0191   -0.0124    0.0867   -0.0405    0.0295   -0.0012
  S   C   48   -0.0689   -0.0725   -0.0006   -0.1748   -0.2137   -0.0004    0.0000    0.0288
  Px  C   48   -0.0196    0.0645    0.0003    0.0219   -0.0745   -0.0001    0.0000    0.0000
  Py  C   48   -0.0008    0.0001   -0.0276    0.0001    0.0001   -0.0311   -0.1131    0.0001
  Pz  C   48   -0.0030   -0.0725   -0.0004   -0.0594    0.0282    0.0000    0.0000    0.0075
  S   C   49   -0.0526   -0.1349   -0.0256   -0.1302   -0.0545    0.0142   -0.2029    0.0468
  Px  C   49   -0.0331    0.0007   -0.0256    0.0274   -0.0573   -0.0190   -0.0418    0.0169
  Py  C   49   -0.0113    0.0294   -0.0150    0.1025    0.0226    0.0095   -0.0582    0.0216
  Pz  C   49    0.0187   -0.0259    0.0189   -0.0125    0.0865    0.0408   -0.0295   -0.0011
  S   C   50    0.0601   -0.0965    0.0398   -0.1578    0.1613    0.0548   -0.1175   -0.0608
  Px  C   50    0.0023   -0.0213    0.0094   -0.0220    0.0091    0.0133   -0.0370    0.0094
  Py  C   50   -0.0145    0.0245    0.0293    0.0587   -0.0137    0.0404   -0.0823    0.0401
  Pz  C   50    0.0571    0.0678    0.0337    0.0503    0.0703    0.0120    0.0104   -0.0551
  S   C   51   -0.1655   -0.0526    0.1332    0.1238    0.0147   -0.1237   -0.1760   -0.0009
  Px  C   51   -0.0001   -0.0002   -0.0053   -0.0600   -0.0110    0.0041   -0.0529   -0.0933
  Py  C   51   -0.0375   -0.0159    0.0252    0.0375    0.0053   -0.0090   -0.0128   -0.0003
  Pz  C   51   -0.0023    0.0481   -0.0084   -0.0767   -0.0037   -0.0551   -0.0421    0.0584
  S   C   52   -0.1075   -0.0911    0.0678    0.1514    0.0322    0.0722   -0.1210   -0.1601
  Px  C   52    0.0519   -0.0002   -0.0824   -0.0756    0.0203    0.0021   -0.0407   -0.0572
  Py  C   52    0.0006   -0.0047   -0.0118    0.0181    0.0090    0.0634    0.0079   -0.0250
  Pz  C   52   -0.0371   -0.0231    0.0249    0.0056   -0.0052   -0.0839   -0.0535   -0.0098
  S   C   53   -0.1083   -0.0213    0.1083    0.1537   -0.0547    0.1866    0.0705   -0.0612
  Px  C   53    0.0196    0.0197   -0.0269    0.0046    0.0479    0.0495   -0.0720   -0.0551
  Py  C   53    0.0094    0.0521   -0.0107   -0.0379   -0.0375    0.0550    0.0435    0.0037
  Pz  C   53   -0.0456   -0.0531    0.0411    0.0655    0.0092   -0.0274   -0.0032   -0.0007
  S   C   54   -0.1193   -0.0957    0.1080    0.1224   -0.0458    0.0031    0.1996    0.0677
  Px  C   54   -0.0432   -0.0014    0.0490    0.0796   -0.0164    0.0434   -0.0340   -0.0221
  Py  C   54    0.0043   -0.0093   -0.0110   -0.0637   -0.0376    0.0222    0.0665    0.0013
  Pz  C   54   -0.0086   -0.0195   -0.0058    0.0278    0.0533   -0.0726    0.0078    0.0430
  S   C   55   -0.1163   -0.0450    0.0679    0.1708    0.0534   -0.1381    0.0270    0.1544
  Px  C   55   -0.0526   -0.0138    0.0592    0.0417   -0.0160   -0.0022   -0.0816   -0.0148
  Py  C   55   -0.0039   -0.0096   -0.0119    0.0161    0.0124   -0.0140    0.0623    0.0235
  Pz  C   55    0.0298    0.0543   -0.0623   -0.0379    0.0231   -0.0446   -0.0539    0.0530
  S   C   56    0.1394   -0.0715   -0.1752   -0.0029   -0.1535   -0.0807    0.1090    0.0676
  Px  C   56   -0.0239    0.0268    0.0510    0.0225    0.0002    0.0168   -0.0082    0.0254
  Py  C   56    0.0411    0.0079    0.0247    0.0378   -0.0316    0.0205   -0.0038    0.0974
  Pz  C   56   -0.0459    0.0663    0.0473    0.0404   -0.0512   -0.0346    0.0550   -0.0373
  S   C   57    0.2259   -0.1222   -0.1351   -0.0513    0.0142    0.0083    0.0121    0.2147
  Px  C   57   -0.0434    0.0140    0.0347    0.0216   -0.0587   -0.0197    0.0083   -0.0094
  Py  C   57    0.0239    0.0088    0.1051    0.0037    0.0052   -0.0052   -0.0073    0.0776
  Pz  C   57    0.0197   -0.0212   -0.0215    0.0166   -0.0931   -0.0261    0.0217    0.0144
  S   C   58    0.1605   -0.0522   -0.1752   -0.0489    0.1610    0.1300   -0.0388    0.0470
  Px  C   58    0.0203   -0.0517   -0.0195   -0.0155   -0.0395   -0.0629    0.0183    0.0503
  Py  C   58    0.0462    0.0325    0.0247   -0.0208    0.0442   -0.0106    0.0182    0.0923
  Pz  C   58    0.0384   -0.0648   -0.0667   -0.0116   -0.0233   -0.0164   -0.0055   -0.0030
  S   C   59    0.0413   -0.1148   -0.1503   -0.0044    0.0535    0.0631   -0.1057   -0.1688
  Px  C   59    0.0563   -0.0129   -0.0710   -0.0528   -0.0188   -0.0420    0.0435    0.0500
  Py  C   59    0.0553   -0.0153   -0.0672   -0.0166    0.0293    0.0410    0.0140    0.0298
  Pz  C   59   -0.0162   -0.0269   -0.0098   -0.0192   -0.0412   -0.0779   -0.0101   -0.0466
  S   C   60    0.0309   -0.0835   -0.1504   -0.0789   -0.0753   -0.1206    0.0233   -0.1605
  Px  C   60    0.0370    0.0082   -0.0230    0.0176   -0.0198    0.0094    0.0575    0.0671
  Py  C   60    0.0513   -0.0226   -0.0672    0.0008   -0.0252   -0.0008    0.0433    0.0334
  Pz  C   60   -0.0507    0.0564    0.0678   -0.0223   -0.0381   -0.0569    0.0564   -0.0192


   Root No.      17        18        19        20        21        22        23        24

                 2 hg      2 hg      2 hg      2 hg      2 hg      1 gg      1 gg      1 gg  

               -27.924   -27.923   -27.923   -27.923   -27.923   -26.945   -26.945   -26.945
  
  S   C    1   -0.0845    0.2012   -0.0001   -0.0002   -0.0401    0.1716    0.0001    0.0001
  Px  C    1    0.1375    0.0269   -0.0000   -0.0000   -0.0054    0.0796    0.0000   -0.0000
  Py  C    1    0.0000    0.0001    0.0475    0.0945    0.0000    0.0001   -0.1146    0.0671
  Pz  C    1   -0.0489   -0.0291    0.0000    0.0000    0.0072   -0.0422   -0.0000    0.0000
  S   C    2   -0.1002    0.0610    0.1219    0.1433    0.0081   -0.0474   -0.0841    0.1551
  Px  C    2    0.0354    0.0946   -0.0156   -0.0172    0.0355    0.0712   -0.0896   -0.0298
  Py  C    2    0.1137   -0.0282    0.0413    0.0136    0.0567   -0.0750   -0.0210    0.0312
  Pz  C    2   -0.0393   -0.0063   -0.0256   -0.0154   -0.0283    0.0204    0.0234   -0.0217
  S   C    3   -0.0920   -0.1552    0.0385    0.1140   -0.0470   -0.0383    0.0804    0.1157
  Px  C    3   -0.1033    0.0562    0.0490    0.0113   -0.0190   -0.0452   -0.0424    0.0201
  Py  C    3    0.0794    0.0364    0.0278    0.0754    0.0044   -0.0460    0.0572    0.0740
  Pz  C    3   -0.0450    0.0236    0.0072   -0.0253   -0.0027    0.0007   -0.0295   -0.0200
  S   C    4   -0.0920   -0.1554   -0.0383   -0.1136   -0.0471   -0.0383   -0.0804   -0.1160
  Px  C    4   -0.1033    0.0562   -0.0491   -0.0114   -0.0190   -0.0453    0.0423   -0.0199
  Py  C    4   -0.0794   -0.0363    0.0278    0.0755   -0.0043    0.0460    0.0573    0.0739
  Pz  C    4   -0.0450    0.0237   -0.0072    0.0253   -0.0027    0.0007    0.0295    0.0201
  S   C    5   -0.1003    0.0606   -0.1219   -0.1434    0.0080   -0.0476    0.0840   -0.1548
  Px  C    5    0.0354    0.0946    0.0155    0.0169    0.0355    0.0711    0.0896    0.0299
  Py  C    5   -0.1137    0.0283    0.0413    0.0136   -0.0567    0.0750   -0.0209    0.0311
  Pz  C    5   -0.0393   -0.0063    0.0256    0.0155   -0.0283    0.0204   -0.0234    0.0217
  S   C    6   -0.0936   -0.1545   -0.0280    0.1169   -0.0465   -0.1099    0.0605   -0.1272
  Px  C    6   -0.0028    0.0004    0.0129   -0.0289    0.0090    0.0096   -0.0030    0.0278
  Py  C    6   -0.0087    0.0806   -0.0210    0.0775    0.0332   -0.0079    0.0445   -0.0824
  Pz  C    6    0.0894   -0.0402   -0.0470    0.0031   -0.0841    0.0117   -0.0518   -0.0006
  S   C    7    0.0962   -0.0374   -0.1085    0.1537   -0.0560    0.0089   -0.1081   -0.1394
  Px  C    7   -0.0310   -0.0579    0.0154   -0.0075   -0.0477   -0.0340    0.0612   -0.0039
  Py  C    7   -0.0475    0.0524   -0.0399    0.0171    0.1093   -0.0500   -0.0257   -0.0274
  Pz  C    7    0.0629    0.0574    0.0233   -0.0244    0.0031    0.0808   -0.0628    0.0472
  S   C    8    0.1692    0.0743   -0.0001   -0.0001   -0.1229    0.2016    0.0001   -0.0001
  Px  C    8    0.0260   -0.1037    0.0001    0.0001   -0.0340   -0.0620   -0.0000   -0.0000
  Py  C    8    0.0000    0.0001   -0.0389    0.0983    0.0000    0.0000   -0.1240   -0.0476
  Pz  C    8   -0.0405    0.0819   -0.0000   -0.0001    0.0446    0.0366    0.0000    0.0000
  S   C    9    0.0962   -0.0376    0.1085   -0.1536   -0.0562    0.0089    0.1081    0.1392
  Px  C    9   -0.0310   -0.0579   -0.0153    0.0077   -0.0477   -0.0340   -0.0612    0.0040
  Py  C    9    0.0475   -0.0524   -0.0399    0.0173   -0.1093    0.0500   -0.0257   -0.0273
  Pz  C    9    0.0629    0.0574   -0.0234    0.0243    0.0031    0.0807    0.0629   -0.0473
  S   C   10   -0.0936   -0.1547    0.0282   -0.1165   -0.0466   -0.1097   -0.0606    0.1275
  Px  C   10   -0.0028    0.0004   -0.0129    0.0289    0.0090    0.0096    0.0030   -0.0277
  Py  C   10    0.0088   -0.0804   -0.0209    0.0777   -0.0331    0.0078    0.0445   -0.0822
  Pz  C   10    0.0894   -0.0401    0.0470   -0.0030   -0.0841    0.0116    0.0519    0.0004
  S   C   11   -0.0849   -0.1193   -0.0065   -0.1474   -0.0775    0.1867    0.0512   -0.0042
  Px  C   11   -0.0121    0.0230   -0.0846   -0.0533    0.0589   -0.0282    0.0243    0.1001
  Py  C   11    0.0013    0.0088    0.0013    0.0299   -0.0094    0.0023   -0.0126    0.0010
  Pz  C   11    0.0511    0.0020    0.0466   -0.0944    0.0723   -0.0777    0.0208   -0.0648
  S   C   12    0.0883   -0.0738    0.1434   -0.1209   -0.0282   -0.0626    0.0882   -0.1037
  Px  C   12   -0.0232   -0.0419   -0.0132   -0.0767    0.1173    0.0255   -0.0500    0.0700
  Py  C   12   -0.0432   -0.0109   -0.0247   -0.0292   -0.0124    0.0634   -0.0087   -0.0237
  Pz  C   12    0.0504    0.0203    0.0159    0.0530    0.0488   -0.0942   -0.0039    0.0623
  S   C   13    0.0952    0.0059    0.1153   -0.0044    0.1638   -0.1097   -0.1159    0.0806
  Px  C   13   -0.0079    0.0387   -0.0784   -0.0055    0.0598    0.0572   -0.0906   -0.0243
  Py  C   13    0.0158   -0.0496   -0.0184   -0.0966    0.0081   -0.0010    0.0612   -0.0518
  Pz  C   13   -0.0201    0.0301    0.0230    0.0823   -0.0416   -0.0024   -0.0155    0.0476
  S   C   14    0.0379    0.0344   -0.1152    0.0059    0.1825   -0.0382   -0.1274   -0.0607
  Px  C   14   -0.0169    0.0108   -0.0486    0.0807   -0.0632    0.0034    0.0177   -0.0570
  Py  C   14   -0.0401   -0.0216    0.0097   -0.0979    0.0264   -0.0071    0.0688    0.0412
  Pz  C   14    0.0599    0.0102    0.0624    0.0265    0.0102    0.0131   -0.0867    0.0148
  S   C   15   -0.1099    0.0252   -0.1536   -0.1077    0.0364    0.0240    0.1039    0.0880
  Px  C   15   -0.0034    0.0663   -0.0128    0.0831    0.0104   -0.0745    0.0147   -0.0272
  Py  C   15    0.0065   -0.0358    0.0220   -0.0313   -0.0287    0.0422   -0.0047    0.0248
  Pz  C   15    0.0392   -0.0472    0.0007   -0.0452    0.1145   -0.0178   -0.0606   -0.0817
  S   C   16   -0.1149    0.0762   -0.1195   -0.1102    0.0616   -0.0474   -0.1393    0.1082
  Px  C   16    0.0071    0.0517   -0.0237   -0.0023   -0.0154   -0.0024   -0.0167   -0.0154
  Py  C   16    0.0185    0.0894    0.0050    0.0002   -0.0575   -0.0351   -0.0241   -0.0351
  Pz  C   16    0.0635    0.0493   -0.0935    0.0540    0.0281    0.0830    0.0406   -0.0433
  S   C   17    0.0425   -0.0186   -0.1476    0.0066    0.1588    0.1868    0.0042    0.0511
  Px  C   17    0.0489   -0.0124   -0.0245    0.0239   -0.0123    0.0165    0.0310    0.0081
  Py  C   17    0.0124    0.0707   -0.1083    0.0048   -0.0704   -0.0809    0.0024    0.0305
  Pz  C   17    0.0672   -0.0410    0.0174    0.0361   -0.0242    0.0310    0.0483   -0.0107
  S   C   18    0.1404   -0.0512   -0.1092    0.1204   -0.0216    0.0089    0.1549    0.0839
  Px  C   18   -0.0054   -0.0449    0.0771    0.0427   -0.0477   -0.0803    0.0483    0.0243
  Py  C   18    0.0294    0.0839    0.0050   -0.0008   -0.0611   -0.0862    0.0181   -0.0383
  Pz  C   18   -0.0334   -0.0690    0.0648    0.0165    0.0007   -0.0158    0.0085    0.0321
  S   C   19    0.1253    0.0852    0.0023    0.0332   -0.1585   -0.0950    0.1116   -0.1314
  Px  C   19    0.0214   -0.0731    0.1091   -0.0197   -0.0088   -0.0302    0.0482   -0.0252
  Py  C   19   -0.0389   -0.0125    0.0645   -0.0398   -0.0122    0.0138   -0.0308   -0.0605
  Pz  C   19    0.0518   -0.0542   -0.0058    0.0383    0.0357   -0.0305    0.0683    0.0843
  S   C   20   -0.0728    0.1843   -0.0007   -0.0335   -0.0940   -0.0534   -0.1315   -0.1117
  Px  C   20    0.0118   -0.0084    0.0576    0.0381   -0.0517    0.0213    0.0250   -0.0920
  Py  C   20    0.0034   -0.0336    0.0678    0.0339   -0.0260    0.0270    0.0206   -0.0648
  Pz  C   20    0.0823    0.0273   -0.0947    0.0079   -0.0487    0.0008    0.0702   -0.0268
  S   C   21   -0.0728    0.1844    0.0004    0.0332   -0.0939   -0.0534    0.1315    0.1116
  Px  C   21    0.0118   -0.0086   -0.0576   -0.0380   -0.0517    0.0214   -0.0249    0.0919
  Py  C   21   -0.0033    0.0337    0.0677    0.0338    0.0260   -0.0271    0.0206   -0.0647
  Pz  C   21    0.0823    0.0274    0.0946   -0.0079   -0.0488    0.0008   -0.0702    0.0269
  S   C   22    0.1253    0.0852   -0.0025   -0.0333   -0.1586   -0.0948   -0.1117    0.1316
  Px  C   22    0.0214   -0.0732   -0.1090    0.0199   -0.0087   -0.0301   -0.0482    0.0253
  Py  C   22    0.0389    0.0125    0.0644   -0.0398    0.0122   -0.0138   -0.0308   -0.0606
  Pz  C   22    0.0517   -0.0543    0.0058   -0.0382    0.0357   -0.0305   -0.0683   -0.0843
  S   C   23    0.1404   -0.0513    0.1092   -0.1204   -0.0217    0.0090   -0.1549   -0.0841
  Px  C   23   -0.0055   -0.0451   -0.0771   -0.0426   -0.0477   -0.0802   -0.0484   -0.0243
  Py  C   23   -0.0294   -0.0839    0.0051   -0.0007    0.0611    0.0861    0.0182   -0.0385
  Pz  C   23   -0.0334   -0.0691   -0.0647   -0.0164    0.0007   -0.0159   -0.0085   -0.0322
  S   C   24    0.0426   -0.0185    0.1476   -0.0067    0.1588    0.1868   -0.0041   -0.0510
  Px  C   24    0.0489   -0.0124    0.0245   -0.0239   -0.0123    0.0165   -0.0310   -0.0083
  Py  C   24   -0.0124   -0.0708   -0.1082    0.0049    0.0704    0.0810    0.0025    0.0305
  Pz  C   24    0.0672   -0.0411   -0.0174   -0.0360   -0.0242    0.0310   -0.0482    0.0105
  S   C   25   -0.1148    0.0766    0.1195    0.1101    0.0616   -0.0476    0.1392   -0.1079
  Px  C   25    0.0071    0.0518    0.0237    0.0022   -0.0154   -0.0024    0.0167    0.0153
  Py  C   25   -0.0185   -0.0894    0.0052    0.0003    0.0575    0.0351   -0.0241   -0.0349
  Pz  C   25    0.0635    0.0493    0.0934   -0.0541    0.0281    0.0831   -0.0405    0.0433
  S   C   26   -0.1098    0.0256    0.1537    0.1076    0.0364    0.0240   -0.1038   -0.0884
  Px  C   26   -0.0034    0.0662    0.0127   -0.0833    0.0103   -0.0745   -0.0148    0.0271
  Py  C   26   -0.0065    0.0357    0.0220   -0.0314    0.0286   -0.0421   -0.0048    0.0247
  Pz  C   26    0.0392   -0.0471   -0.0007    0.0451    0.1146   -0.0178    0.0606    0.0817
  S   C   27    0.0380    0.0345    0.1152   -0.0062    0.1824   -0.0383    0.1273    0.0604
  Px  C   27   -0.0169    0.0106    0.0486   -0.0807   -0.0632    0.0034   -0.0177    0.0569
  Py  C   27    0.0401    0.0214    0.0097   -0.0979   -0.0264    0.0071    0.0688    0.0412
  Pz  C   27    0.0598    0.0100   -0.0625   -0.0265    0.0102    0.0130    0.0867   -0.0146
  S   C   28    0.0951    0.0057   -0.1153    0.0042    0.1639   -0.1098    0.1157   -0.0803
  Px  C   28   -0.0078    0.0388    0.0783    0.0053    0.0598    0.0571    0.0907    0.0241
  Py  C   28   -0.0159    0.0494   -0.0185   -0.0967   -0.0082    0.0010    0.0612   -0.0518
  Pz  C   28   -0.0201    0.0299   -0.0230   -0.0823   -0.0416   -0.0025    0.0155   -0.0475
  S   C   29    0.0882   -0.0738   -0.1433    0.1211   -0.0281   -0.0625   -0.0883    0.1040
  Px  C   29   -0.0232   -0.0418    0.0133    0.0767    0.1174    0.0254    0.0501   -0.0700
  Py  C   29    0.0432    0.0108   -0.0248   -0.0292    0.0124   -0.0634   -0.0087   -0.0237
  Pz  C   29    0.0504    0.0201   -0.0159   -0.0531    0.0488   -0.0942    0.0038   -0.0623
  S   C   30   -0.0848   -0.1190    0.0067    0.1477   -0.0774    0.1867   -0.0510    0.0042
  Px  C   30   -0.0120    0.0233    0.0846    0.0532    0.0589   -0.0282   -0.0243   -0.1002
  Py  C   30   -0.0013   -0.0087    0.0014    0.0299    0.0094   -0.0022   -0.0126    0.0010
  Pz  C   30    0.0511    0.0022   -0.0466    0.0943    0.0723   -0.0776   -0.0209    0.0649
  S   C   31   -0.0920   -0.1554   -0.0383   -0.1136   -0.0471   -0.0383   -0.0804   -0.1160
  Px  C   31    0.1033   -0.0562    0.0491    0.0114    0.0190    0.0453   -0.0423    0.0199
  Py  C   31    0.0794    0.0363   -0.0278   -0.0755    0.0043   -0.0460   -0.0573   -0.0739
  Pz  C   31    0.0450   -0.0237    0.0072   -0.0253    0.0027   -0.0007   -0.0295   -0.0201
  S   C   32   -0.1003    0.0606   -0.1219   -0.1434    0.0080   -0.0476    0.0840   -0.1548
  Px  C   32   -0.0354   -0.0946   -0.0155   -0.0169   -0.0355   -0.0711   -0.0896   -0.0299
  Py  C   32    0.1137   -0.0283   -0.0413   -0.0136    0.0567   -0.0750    0.0209   -0.0311
  Pz  C   32    0.0393    0.0063   -0.0256   -0.0155    0.0283   -0.0204    0.0234   -0.0217
  S   C   33   -0.0845    0.2012   -0.0001   -0.0002   -0.0401    0.1716    0.0001    0.0001
  Px  C   33   -0.1375   -0.0269    0.0000    0.0000    0.0054   -0.0796   -0.0000    0.0000
  Py  C   33   -0.0000   -0.0001   -0.0475   -0.0945   -0.0000   -0.0001    0.1146   -0.0671
  Pz  C   33    0.0489    0.0291   -0.0000   -0.0000   -0.0072    0.0422    0.0000   -0.0000
  S   C   34   -0.1002    0.0610    0.1219    0.1433    0.0081   -0.0474   -0.0841    0.1551
  Px  C   34   -0.0354   -0.0946    0.0156    0.0172   -0.0355   -0.0712    0.0896    0.0298
  Py  C   34   -0.1137    0.0282   -0.0413   -0.0136   -0.0567    0.0750    0.0210   -0.0312
  Pz  C   34    0.0393    0.0063    0.0256    0.0154    0.0283   -0.0204   -0.0234    0.0217
  S   C   35   -0.0920   -0.1552    0.0385    0.1140   -0.0470   -0.0383    0.0804    0.1157
  Px  C   35    0.1033   -0.0562   -0.0490   -0.0113    0.0190    0.0452    0.0424   -0.0201
  Py  C   35   -0.0794   -0.0364   -0.0278   -0.0754   -0.0044    0.0460   -0.0572   -0.0740
  Pz  C   35    0.0450   -0.0236   -0.0072    0.0253    0.0027   -0.0007    0.0295    0.0200
  S   C   36   -0.0728    0.1844    0.0004    0.0332   -0.0939   -0.0534    0.1315    0.1116
  Px  C   36   -0.0118    0.0086    0.0576    0.0380    0.0517   -0.0214    0.0249   -0.0919
  Py  C   36    0.0033   -0.0337   -0.0677   -0.0338   -0.0260    0.0271   -0.0206    0.0647
  Pz  C   36   -0.0823   -0.0274   -0.0946    0.0079    0.0488   -0.0008    0.0702   -0.0269
  S   C   37    0.1253    0.0852   -0.0025   -0.0333   -0.1586   -0.0948   -0.1117    0.1316
  Px  C   37   -0.0214    0.0732    0.1090   -0.0199    0.0087    0.0301    0.0482   -0.0253
  Py  C   37   -0.0389   -0.0125   -0.0644    0.0398   -0.0122    0.0138    0.0308    0.0606
  Pz  C   37   -0.0517    0.0543   -0.0058    0.0382   -0.0357    0.0305    0.0683    0.0843
  S   C   38    0.1404   -0.0513    0.1092   -0.1204   -0.0217    0.0090   -0.1549   -0.0841
  Px  C   38    0.0055    0.0451    0.0771    0.0426    0.0477    0.0802    0.0484    0.0243
  Py  C   38    0.0294    0.0839   -0.0051    0.0007   -0.0611   -0.0861   -0.0182    0.0385
  Pz  C   38    0.0334    0.0691    0.0647    0.0164   -0.0007    0.0159    0.0085    0.0322
  S   C   39    0.0426   -0.0185    0.1476   -0.0067    0.1588    0.1868   -0.0041   -0.0510
  Px  C   39   -0.0489    0.0124   -0.0245    0.0239    0.0123   -0.0165    0.0310    0.0083
  Py  C   39    0.0124    0.0708    0.1082   -0.0049   -0.0704   -0.0810   -0.0025   -0.0305
  Pz  C   39   -0.0672    0.0411    0.0174    0.0360    0.0242   -0.0310    0.0482   -0.0105
  S   C   40   -0.1148    0.0766    0.1195    0.1101    0.0616   -0.0476    0.1392   -0.1079
  Px  C   40   -0.0071   -0.0518   -0.0237   -0.0022    0.0154    0.0024   -0.0167   -0.0153
  Py  C   40    0.0185    0.0894   -0.0052   -0.0003   -0.0575   -0.0351    0.0241    0.0349
[...]
  S   C   29    0.1359   -0.0058   -0.0806    0.1026   -0.0539   -0.0816   -0.0689   -0.0494
  Px  C   29   -0.1033    0.0641    0.0325   -0.1067   -0.0784    0.0408   -0.0308    0.0857
  Py  C   29    0.0676    0.0337    0.0342    0.0484    0.0286    0.0461   -0.0562   -0.0039
  Pz  C   29    0.0424    0.0880    0.0708    0.0378    0.0274    0.0929   -0.0935    0.0230
  S   C   30    0.0449    0.1480    0.0297    0.0745    0.0369    0.0479   -0.1272    0.0439
  Px  C   30    0.0834   -0.0751   -0.0882    0.1176   -0.0382   -0.0797    0.0658   -0.0425
  Py  C   30   -0.0014    0.0061   -0.0009    0.0103    0.0052    0.0058    0.0105   -0.0035
  Pz  C   30   -0.0108   -0.1175    0.0808   -0.0000    0.0604    0.0877    0.1257   -0.0295
  S   C   31   -0.1181   -0.0731    0.0036   -0.0023   -0.0961   -0.0127   -0.1012   -0.0874
  Px  C   31    0.0065   -0.0942   -0.0213   -0.0304   -0.1164    0.0891   -0.0220    0.0398
  Py  C   31   -0.0985   -0.0479   -0.0090    0.0427    0.0697    0.0877   -0.0858   -0.0650
  Pz  C   31   -0.0359   -0.0708   -0.0153    0.0001   -0.0297    0.0576   -0.0370   -0.0070
  S   C   32    0.0541    0.0240    0.0440   -0.0034   -0.1567   -0.0079    0.0348    0.0379
  Px  C   32    0.1131   -0.0025   -0.0582   -0.0450    0.0654    0.0449    0.0929    0.1012
  Py  C   32    0.0735    0.0579    0.0657   -0.0171   -0.0457   -0.0744    0.1176   -0.0389
  Pz  C   32    0.0238    0.0379    0.0546   -0.0013   -0.0375   -0.0402    0.0408   -0.0303
  S   C   33    0.1269    0.0003   -0.0954    0.0001    0.0002   -0.0045    0.1330    0.0979
  Px  C   33   -0.0351   -0.0002    0.1161    0.0001    0.0003    0.0001    0.0268   -0.1487
  Py  C   33    0.0005    0.0031    0.0000   -0.0464    0.1593   -0.0112   -0.0008    0.0002
  Pz  C   33    0.0240    0.0001   -0.0788   -0.0000   -0.0002   -0.0002   -0.0062    0.0747
  S   C   34    0.0551   -0.0238    0.0440    0.0034    0.1568    0.0054    0.0342    0.0385
  Px  C   34    0.1127    0.0031   -0.0583    0.0452   -0.0652   -0.0515    0.0903    0.1005
  Py  C   34   -0.0740    0.0578   -0.0656   -0.0175   -0.0465   -0.0678   -0.1215    0.0379
  Pz  C   34    0.0242   -0.0379    0.0546    0.0014    0.0379    0.0381    0.0429   -0.0297
  S   C   35   -0.1179    0.0726    0.0037    0.0022    0.0957    0.0197   -0.1008   -0.0868
  Px  C   35    0.0067    0.0942   -0.0211    0.0303    0.1161   -0.0881   -0.0280    0.0392
  Py  C   35    0.0992   -0.0476    0.0090    0.0429    0.0700    0.0818    0.0902    0.0663
  Pz  C   35   -0.0360    0.0707   -0.0151   -0.0002    0.0295   -0.0552   -0.0405   -0.0076
  S   C   36   -0.0362   -0.0749   -0.1212    0.0749   -0.0035    0.1240   -0.0630   -0.0482
  Px  C   36   -0.0559    0.0772    0.0572    0.0902    0.0236   -0.0735    0.0525   -0.0101
  Py  C   36    0.0400   -0.0553   -0.0338   -0.0777   -0.0076    0.0630   -0.0324   -0.0016
  Pz  C   36   -0.0271    0.0430   -0.1292    0.0059    0.0932    0.0763    0.0572   -0.1009
  S   C   37   -0.1253    0.0586    0.0153    0.1068    0.0944   -0.0140    0.0221   -0.0791
  Px  C   37    0.1288    0.0089   -0.0574   -0.1116    0.0344    0.0534    0.0740    0.0537
  Py  C   37   -0.0149    0.0605    0.0503    0.0221   -0.0202   -0.0956    0.0233   -0.0230
  Pz  C   37    0.0309    0.0985    0.0543   -0.0374    0.0024   -0.1042    0.0884   -0.0025
  S   C   38    0.0622    0.1401    0.0323   -0.0009    0.0498   -0.1428    0.0664   -0.0031
  Px  C   38   -0.1255   -0.0367   -0.0188    0.0484   -0.0004    0.0203   -0.0906   -0.1019
  Py  C   38    0.0149   -0.0609    0.0260   -0.0695   -0.1346   -0.0127   -0.0208    0.0282
  Pz  C   38   -0.0520   -0.0365    0.0001   -0.0014   -0.0598   -0.0009   -0.0637   -0.0521
  S   C   39    0.0447    0.0178    0.0294   -0.1069   -0.0535   -0.0649    0.0288    0.0889
  Px  C   39   -0.0046    0.0727    0.0096    0.0121    0.0419   -0.0756    0.0045   -0.0144
  Py  C   39    0.0350   -0.0167    0.0225    0.1172    0.0585    0.0685    0.0268    0.0744
  Pz  C   39   -0.0102    0.1190    0.0138    0.0362    0.0761   -0.1129    0.0155    0.0002
  S   C   40    0.0547   -0.1416    0.0440   -0.0739   -0.0872    0.0978   -0.0543    0.0416
  Px  C   40   -0.0116   -0.0243   -0.0055    0.0466   -0.0186    0.0312   -0.0115    0.0108
  Py  C   40    0.0295    0.0875    0.0035   -0.1108    0.0445   -0.0950    0.0311    0.0094
  Pz  C   40    0.0699   -0.0481    0.1173   -0.0041   -0.0508   -0.0143   -0.0178    0.1577
  S   C   41   -0.0190   -0.0081    0.1569    0.0703   -0.0697   -0.1033    0.0200   -0.0800
  Px  C   41   -0.0785   -0.0411   -0.0577    0.1038    0.0328    0.0487   -0.0443    0.0584
  Py  C   41   -0.0586   -0.0265   -0.0483    0.0628    0.0267    0.0228   -0.0424    0.0386
  Pz  C   41   -0.0256   -0.1062    0.0916    0.0013    0.0187   -0.1188   -0.1135   -0.0256
  S   C   42   -0.1180   -0.0574    0.0034    0.1043   -0.0021   -0.0263   -0.1250   -0.0079
  Px  C   42    0.0339    0.0208    0.0702   -0.0576    0.0390   -0.0632    0.0312   -0.0847
  Py  C   42    0.0546   -0.0190   -0.0174   -0.0985    0.0947   -0.0169    0.0010    0.0017
  Pz  C   42    0.0020   -0.0452   -0.1106   -0.0342    0.0605    0.0534   -0.0461    0.1014
  S   C   43   -0.0438   -0.0766   -0.1093    0.0024    0.0548    0.0959   -0.0910    0.0824
  Px  C   43   -0.1246   -0.0515    0.0400    0.0775   -0.0008   -0.0277   -0.1244   -0.0668
  Py  C   43    0.0055    0.0084    0.0566    0.0222   -0.1329   -0.0285   -0.0002   -0.0028
  Pz  C   43    0.0245    0.0133    0.0231   -0.0021   -0.0963   -0.0093    0.0251    0.0188
  S   C   44    0.1359   -0.0058   -0.0806   -0.1026    0.0539    0.0816    0.0689    0.0494
  Px  C   44    0.1033   -0.0641   -0.0325   -0.1067   -0.0784    0.0408   -0.0308    0.0857
  Py  C   44   -0.0676   -0.0337   -0.0342    0.0484    0.0286    0.0461   -0.0562   -0.0039
  Pz  C   44   -0.0424   -0.0880   -0.0708    0.0378    0.0274    0.0929   -0.0935    0.0230
  S   C   45    0.0449    0.1480    0.0297   -0.0745   -0.0369   -0.0479    0.1272   -0.0439
  Px  C   45   -0.0834    0.0751    0.0882    0.1176   -0.0382   -0.0797    0.0658   -0.0425
  Py  C   45    0.0014   -0.0061    0.0009    0.0103    0.0052    0.0058    0.0105   -0.0035
  Pz  C   45    0.0108    0.1175   -0.0808   -0.0000    0.0604    0.0877    0.1257   -0.0295
  S   C   46   -0.0444    0.0890   -0.1093    0.0723   -0.0590    0.0282   -0.0262    0.1307
  Px  C   46   -0.0178    0.0149   -0.0304   -0.0274    0.0049   -0.0136   -0.0043    0.0334
  Py  C   46    0.0477   -0.0279    0.0868    0.1172    0.0103    0.0099    0.0300   -0.1056
  Pz  C   46   -0.0281    0.1322    0.0011    0.0022   -0.1027    0.1234   -0.0471   -0.0007
  S   C   47    0.0617    0.0100    0.0322    0.1036   -0.1031    0.0570    0.0060   -0.0510
  Px  C   47    0.0567   -0.0188   -0.0567    0.0766   -0.0341   -0.0239    0.0403    0.0591
  Py  C   47   -0.0896    0.0452   -0.0410   -0.0860   -0.0059    0.0131   -0.1177    0.0424
  Pz  C   47    0.0196   -0.0222    0.1133   -0.0346    0.0450    0.0290    0.0339   -0.1220
  S   C   48   -0.0364   -0.0002    0.1545    0.0001    0.0004   -0.0004    0.0459   -0.1588
  Px  C   48   -0.0973   -0.0003    0.0832   -0.0001   -0.0001    0.0034   -0.0950   -0.0951
  Py  C   48   -0.0005    0.0366    0.0000    0.0795   -0.1427    0.0309    0.0012   -0.0000
  Pz  C   48    0.0546    0.0002   -0.0464    0.0001    0.0001   -0.0027    0.0774    0.0660
  S   C   49    0.0627   -0.0098    0.0322   -0.1035    0.1033   -0.0566    0.0023   -0.0514
  Px  C   49    0.0571    0.0191   -0.0566   -0.0765    0.0342    0.0208    0.0416    0.0594
  Py  C   49    0.0898    0.0455    0.0412   -0.0856   -0.0050    0.0066    0.1186   -0.0424
  Pz  C   49    0.0194    0.0221    0.1133    0.0349   -0.0443   -0.0295    0.0323   -0.1224
  S   C   50   -0.0437   -0.0890   -0.1095   -0.0725    0.0584   -0.0281   -0.0281    0.1305
  Px  C   50   -0.0179   -0.0149   -0.0305    0.0273   -0.0050    0.0135   -0.0035    0.0336
  Py  C   50   -0.0482   -0.0279   -0.0869    0.1170    0.0097    0.0105   -0.0297    0.1058
  Pz  C   50   -0.0272   -0.1323    0.0009   -0.0024    0.1024   -0.1203   -0.0549   -0.0017
  S   C   51    0.0454   -0.1479    0.0294    0.0748    0.0378    0.0408    0.1294   -0.0432
  Px  C   51   -0.0831   -0.0756    0.0880   -0.1173    0.0388    0.0761    0.0705   -0.0415
  Py  C   51   -0.0014   -0.0061   -0.0009    0.0103    0.0051    0.0064   -0.0102    0.0036
  Pz  C   51    0.0111   -0.1173   -0.0810    0.0004   -0.0596   -0.0946    0.1206   -0.0308
  S   C   52    0.1359    0.0065   -0.0806    0.1027   -0.0536   -0.0861    0.0640    0.0484
  Px  C   52    0.1034    0.0645   -0.0324    0.1066    0.0779   -0.0399   -0.0340    0.0856
  Py  C   52    0.0679   -0.0335    0.0342    0.0486    0.0289    0.0427    0.0585    0.0046
  Pz  C   52   -0.0428    0.0879   -0.0706   -0.0381   -0.0281   -0.0874   -0.0986    0.0218
  S   C   53   -0.0446    0.0767   -0.1092   -0.0027   -0.0556   -0.0913   -0.0962    0.0811
  Px  C   53   -0.1248    0.0510    0.0401   -0.0778    0.0003    0.0358   -0.1224   -0.0665
  Py  C   53   -0.0063    0.0085   -0.0566    0.0222   -0.1329   -0.0285   -0.0008    0.0020
  Pz  C   53    0.0249   -0.0132    0.0231    0.0022    0.0964    0.0076    0.0250    0.0192
  S   C   54   -0.1176    0.0570    0.0036   -0.1046    0.0014    0.0338   -0.1229   -0.0076
  Px  C   54    0.0336   -0.0208    0.0701    0.0578   -0.0385    0.0622    0.0350   -0.0841
  Py  C   54   -0.0537   -0.0193    0.0174   -0.0985    0.0947   -0.0168   -0.0024   -0.0017
  Pz  C   54    0.0017    0.0454   -0.1105    0.0340   -0.0611   -0.0518   -0.0489    0.1006
  S   C   55   -0.0191    0.0077    0.1569   -0.0702    0.0701    0.1029    0.0259   -0.0786
  Px  C   55   -0.0784    0.0409   -0.0576   -0.1040   -0.0333   -0.0467   -0.0467    0.0576
  Py  C   55    0.0584   -0.0264    0.0482    0.0629    0.0271    0.0207    0.0434   -0.0381
  Pz  C   55   -0.0262    0.1060    0.0918   -0.0015   -0.0192    0.1256   -0.1061   -0.0243
  S   C   56    0.0542    0.1418    0.0443    0.0737    0.0867   -0.0949   -0.0607    0.0408
  Px  C   56   -0.0119    0.0242   -0.0055   -0.0466    0.0185   -0.0306   -0.0133    0.0104
  Py  C   56   -0.0305    0.0874   -0.0033   -0.1109    0.0443   -0.0929   -0.0367   -0.0104
  Pz  C   56    0.0698    0.0482    0.1174    0.0039    0.0501    0.0135   -0.0173    0.1580
  S   C   57    0.0457   -0.0177    0.0295    0.1069    0.0534    0.0620    0.0319    0.0900
  Px  C   57   -0.0044   -0.0727    0.0095   -0.0121   -0.0418    0.0754    0.0093   -0.0137
  Py  C   57   -0.0340   -0.0168   -0.0224    0.1172    0.0586    0.0708   -0.0233   -0.0732
  Pz  C   57   -0.0098   -0.1190    0.0136   -0.0361   -0.0760    0.1118    0.0227    0.0012
  S   C   58    0.0626   -0.1399    0.0320    0.0011   -0.0493    0.1387    0.0750   -0.0017
  Px  C   58   -0.1258    0.0362   -0.0187   -0.0486    0.0002   -0.0137   -0.0915   -0.1022
  Py  C   58   -0.0155   -0.0609   -0.0262   -0.0694   -0.1344   -0.0136    0.0210   -0.0289
  Pz  C   58   -0.0519    0.0363    0.0002    0.0013    0.0596    0.0053   -0.0638   -0.0518
  S   C   59   -0.1256   -0.0591    0.0152   -0.1066   -0.0940    0.0136    0.0238   -0.0794
  Px  C   59    0.1290   -0.0082   -0.0574    0.1118   -0.0341   -0.0583    0.0706    0.0531
  Py  C   59    0.0146    0.0607   -0.0502    0.0220   -0.0204   -0.0943   -0.0288    0.0219
  Pz  C   59    0.0315   -0.0985    0.0542    0.0376   -0.0019    0.0988    0.0943   -0.0013
  S   C   60   -0.0369    0.0750   -0.1211   -0.0750    0.0032   -0.1195   -0.0700   -0.0497
  Px  C   60   -0.0558   -0.0776    0.0571   -0.0900   -0.0233    0.0704    0.0571   -0.0094
  Py  C   60   -0.0399   -0.0555    0.0337   -0.0776   -0.0074    0.0609    0.0363    0.0022
  Pz  C   60   -0.0272   -0.0429   -0.1293   -0.0057   -0.0925   -0.0784    0.0532   -0.1021


              NET ATOMIC CHARGES AND DIPOLE CONTRIBUTIONS

  ATOM NO.   TYPE          CHARGE      No. of ELECS.   s-Pop       p-Pop       
    1          C           0.000019        4.0000     1.07027     2.92971
    2          C          -0.000031        4.0000     1.07029     2.92974
    3          C           0.000002        4.0000     1.07029     2.92970
    4          C           0.000002        4.0000     1.07029     2.92970
    5          C          -0.000031        4.0000     1.07029     2.92974
    6          C          -0.000002        4.0000     1.07030     2.92970
    7          C           0.000012        4.0000     1.07031     2.92968
    8          C          -0.000021        4.0000     1.07027     2.92975
    9          C           0.000012        4.0000     1.07031     2.92968
   10          C          -0.000001        4.0000     1.07030     2.92970
   11          C          -0.000005        4.0000     1.07029     2.92971
   12          C          -0.000004        4.0000     1.07030     2.92970
   13          C           0.000029        4.0000     1.07031     2.92966
   14          C          -0.000011        4.0000     1.07032     2.92969
   15          C           0.000017        4.0000     1.07030     2.92968
   16          C           0.000003        4.0000     1.07030     2.92970
   17          C           0.000003        4.0000     1.07032     2.92968
   18          C          -0.000003        4.0000     1.07029     2.92971
   19          C           0.000013        4.0000     1.07031     2.92968
   20          C          -0.000021        4.0000     1.07029     2.92973
   21          C          -0.000021        4.0000     1.07029     2.92973
   22          C           0.000012        4.0000     1.07031     2.92968
   23          C          -0.000003        4.0000     1.07029     2.92971
   24          C           0.000002        4.0000     1.07032     2.92968
   25          C           0.000003        4.0000     1.07030     2.92970
   26          C           0.000017        4.0000     1.07030     2.92968
   27          C          -0.000011        4.0000     1.07032     2.92969
   28          C           0.000029        4.0000     1.07031     2.92966
   29          C          -0.000004        4.0000     1.07030     2.92970
   30          C          -0.000006        4.0000     1.07029     2.92971
   31          C           0.000002        4.0000     1.07029     2.92970
   32          C          -0.000031        4.0000     1.07029     2.92974
   33          C           0.000019        4.0000     1.07027     2.92971
   34          C          -0.000031        4.0000     1.07029     2.92974
   35          C           0.000002        4.0000     1.07029     2.92970
   36          C          -0.000021        4.0000     1.07029     2.92973
   37          C           0.000012        4.0000     1.07031     2.92968
   38          C          -0.000003        4.0000     1.07029     2.92971
   39          C           0.000002        4.0000     1.07032     2.92968
   40          C           0.000003        4.0000     1.07030     2.92970
   41          C           0.000017        4.0000     1.07030     2.92968
   42          C          -0.000011        4.0000     1.07032     2.92969
   43          C           0.000029        4.0000     1.07031     2.92966
   44          C          -0.000004        4.0000     1.07030     2.92970
   45          C          -0.000006        4.0000     1.07029     2.92971
   46          C          -0.000002        4.0000     1.07030     2.92970
   47          C           0.000012        4.0000     1.07031     2.92968
   48          C          -0.000021        4.0000     1.07027     2.92975
   49          C           0.000012        4.0000     1.07031     2.92968
   50          C          -0.000001        4.0000     1.07030     2.92970
   51          C          -0.000005        4.0000     1.07029     2.92971
   52          C          -0.000004        4.0000     1.07030     2.92970
   53          C           0.000029        4.0000     1.07031     2.92966
   54          C          -0.000011        4.0000     1.07032     2.92969
   55          C           0.000017        4.0000     1.07030     2.92968
   56          C           0.000003        4.0000     1.07030     2.92970
   57          C           0.000003        4.0000     1.07032     2.92968
   58          C          -0.000003        4.0000     1.07029     2.92971
   59          C           0.000013        4.0000     1.07031     2.92968
   60          C          -0.000021        4.0000     1.07029     2.92973
 DIPOLE           X         Y         Z       TOTAL
 POINT-CHG.    -0.000    -0.000    -0.000     0.000
 HYBRID         0.000     0.000     0.000     0.000
 SUM           -0.000    -0.000    -0.000     0.000


          ATOMIC ORBITAL ELECTRON POPULATIONS

     Atom    s        px        py        pz   
    1  C   1.07027   0.96265   0.96643   1.00063
    2  C   1.07029   0.96607   0.96301   1.00066
    3  C   1.07029   0.96395   0.96512   1.00063
    4  C   1.07029   0.96395   0.96512   1.00063
    5  C   1.07029   0.96607   0.96301   1.00066
    6  C   1.07030   0.99854   0.96512   0.96604
    7  C   1.07031   0.99170   0.96300   0.97497
    8  C   1.07027   0.98657   0.96644   0.97675
    9  C   1.07031   0.99170   0.96300   0.97497
   10  C   1.07030   0.99854   0.96512   0.96604
   11  C   1.07029   0.96628   0.99739   0.96605
   12  C   1.07030   0.96140   0.99332   0.97498
   13  C   1.07031   0.96834   0.98460   0.97672
   14  C   1.07032   0.97010   0.98462   0.97498
   15  C   1.07030   0.97033   0.99331   0.96604
   16  C   1.07030   0.99028   0.97338   0.96604
   17  C   1.07032   0.98883   0.96588   0.97497
   18  C   1.07029   0.97960   0.97338   0.97674
   19  C   1.07031   0.97476   0.97995   0.97497
   20  C   1.07029   0.98371   0.97997   0.96605
   21  C   1.07029   0.98371   0.97997   0.96605
   22  C   1.07031   0.97476   0.97995   0.97497
   23  C   1.07029   0.97960   0.97338   0.97673
   24  C   1.07032   0.98883   0.96588   0.97497
   25  C   1.07030   0.99028   0.97338   0.96604
   26  C   1.07030   0.97033   0.99331   0.96604
   27  C   1.07032   0.97010   0.98462   0.97498
   28  C   1.07031   0.96834   0.98460   0.97672
   29  C   1.07030   0.96140   0.99332   0.97498
   30  C   1.07029   0.96628   0.99739   0.96605
   31  C   1.07029   0.96395   0.96512   1.00063
   32  C   1.07029   0.96607   0.96301   1.00066
   33  C   1.07027   0.96265   0.96643   1.00063
   34  C   1.07029   0.96607   0.96301   1.00066
   35  C   1.07029   0.96395   0.96512   1.00063
   36  C   1.07029   0.98371   0.97997   0.96605
   37  C   1.07031   0.97476   0.97995   0.97497
   38  C   1.07029   0.97960   0.97338   0.97673
   39  C   1.07032   0.98883   0.96588   0.97497
   40  C   1.07030   0.99028   0.97338   0.96604
   41  C   1.07030   0.97033   0.99331   0.96604
   42  C   1.07032   0.97010   0.98462   0.97498
   43  C   1.07031   0.96834   0.98460   0.97672
   44  C   1.07030   0.96140   0.99332   0.97498
   45  C   1.07029   0.96628   0.99739   0.96605
   46  C   1.07030   0.99854   0.96512   0.96604
   47  C   1.07031   0.99170   0.96300   0.97497
   48  C   1.07027   0.98657   0.96644   0.97675
   49  C   1.07031   0.99170   0.96300   0.97497
   50  C   1.07030   0.99854   0.96512   0.96604
   51  C   1.07029   0.96628   0.99739   0.96605
   52  C   1.07030   0.96140   0.99332   0.97498
   53  C   1.07031   0.96834   0.98460   0.97672
   54  C   1.07032   0.97010   0.98462   0.97498
   55  C   1.07030   0.97033   0.99331   0.96604
   56  C   1.07030   0.99028   0.97338   0.96604
   57  C   1.07032   0.98883   0.96588   0.97497
   58  C   1.07029   0.97960   0.97338   0.97674
   59  C   1.07031   0.97476   0.97995   0.97497
   60  C   1.07029   0.98371   0.97997   0.96605

 **********************
 *                    *
 * JOB ENDED NORMALLY *
 *                    *
 **********************



 TOTAL JOB TIME:             0.49 SECONDS

 == MOPAC DONE ==
