                                                                        
Freq      RB3LYP                                                      6-31G(d)            
Number of atoms                            I                8
Info1-9                                    I   N=           9
          16          16        1002           0           0         101
           6          18        -502
Charge                                     I                0
Multiplicity                               I                1
Number of electrons                        I               30
Number of alpha electrons                  I               15
Number of beta electrons                   I               15
Number of basis functions                  I               68
Number of independent functions            I               68
Number of point charges in /Mol/           I                0
Number of translation vectors              I                0
Atomic numbers                             I   N=           8
           6           6           6           1           1           1
           1           8
Nuclear charges                            R   N=           8
  6.00000000E+00  6.00000000E+00  6.00000000E+00  1.00000000E+00  1.00000000E+00
  1.00000000E+00  1.00000000E+00  8.00000000E+00
Current cartesian coordinates              R   N=          24
  1.53309004E+00  8.78160957E-01  1.61476850E-04 -1.26040824E+00  1.13884714E+00
 -1.57027151E-04 -2.77502165E+00 -8.85483328E-01  8.45749366E-05 -2.01732532E+00
  3.05138794E+00 -4.42243181E-04 -4.82054382E+00 -7.21053696E-01 -3.29222410E-05
 -1.96699282E+00 -2.77365728E+00  4.58825164E-04  2.59673446E+00  2.68949258E+00
  7.03086653E-04  2.65277082E+00 -1.12941477E+00 -1.52611776E-04
Force Field                                I                0
Int Atom Types                             I   N=           8
           0           0           0           0           0           0
           0           0
MM charges                                 R   N=           8
  0.00000000E+00  0.00000000E+00  0.00000000E+00  0.00000000E+00  0.00000000E+00
  0.00000000E+00  0.00000000E+00  0.00000000E+00
Integer atomic weights                     I   N=           8
          12          12          12           1           1           1
           1          16
Real atomic weights                        R   N=           8
  1.20000000E+01  1.20000000E+01  1.20000000E+01  1.00782504E+00  1.00782504E+00
  1.00782504E+00  1.00782504E+00  1.59949146E+01
Atom fragment info                         I   N=           8
           0           0           0           0           0           0
           0           0
Atom residue num                           I   N=           8
           0           0           0           0           0           0
           0           0
Nuclear spins                              I   N=           8
           0           0           0           1           1           1
           1           0
Nuclear ZEff                               R   N=           8
 -3.60000000E+00 -3.60000000E+00 -3.60000000E+00 -1.00000000E+00 -1.00000000E+00
 -1.00000000E+00 -1.00000000E+00 -5.60000000E+00
Nuclear ZNuc                               R   N=           8
  6.00000000E+00  6.00000000E+00  6.00000000E+00  1.00000000E+00  1.00000000E+00
  1.00000000E+00  1.00000000E+00  8.00000000E+00
Nuclear QMom                               R   N=           8
  0.00000000E+00  0.00000000E+00  0.00000000E+00  0.00000000E+00  0.00000000E+00
  0.00000000E+00  0.00000000E+00  0.00000000E+00
Nuclear GFac                               R   N=           8
  0.00000000E+00  0.00000000E+00  0.00000000E+00  2.79284600E+00  2.79284600E+00
  2.79284600E+00  2.79284600E+00  0.00000000E+00
MicOpt                                     I   N=           8
          -1          -1          -1          -1          -1          -1
          -1          -1
Number of contracted shells                I               24
Number of primitive shells                 I               60
Pure/Cartesian d shells                    I                1
Pure/Cartesian f shells                    I                0
Highest angular momentum                   I                2
Largest degree of contraction              I                6
Shell types                                I   N=          24
           0          -1          -1           2           0          -1
          -1           2           0          -1          -1           2
           0           0           0           0           0           0
           0           0           0          -1          -1           2
Number of primitives per shell             I   N=          24
           6           3           1           1           6           3
           1           1           6           3           1           1
           3           1           3           1           3           1
           3           1           6           3           1           1
Shell to atom map                          I   N=          24
           1           1           1           1           2           2
           2           2           3           3           3           3
           4           4           5           5           6           6
           7           7           8           8           8           8
Primitive exponents                        R   N=          60
  3.04752488E+03  4.57369518E+02  1.03948685E+02  2.92101553E+01  9.28666296E+00
  3.16392696E+00  7.86827235E+00  1.88128854E+00  5.44249258E-01  1.68714478E-01
  8.00000000E-01  3.04752488E+03  4.57369518E+02  1.03948685E+02  2.92101553E+01
  9.28666296E+00  3.16392696E+00  7.86827235E+00  1.88128854E+00  5.44249258E-01
  1.68714478E-01  8.00000000E-01  3.04752488E+03  4.57369518E+02  1.03948685E+02
  2.92101553E+01  9.28666296E+00  3.16392696E+00  7.86827235E+00  1.88128854E+00
  5.44249258E-01  1.68714478E-01  8.00000000E-01  1.87311370E+01  2.82539436E+00
  6.40121692E-01  1.61277759E-01  1.87311370E+01  2.82539436E+00  6.40121692E-01
  1.61277759E-01  1.87311370E+01  2.82539436E+00  6.40121692E-01  1.61277759E-01
  1.87311370E+01  2.82539436E+00  6.40121692E-01  1.61277759E-01  5.48467166E+03
  8.25234946E+02  1.88046958E+02  5.29645000E+01  1.68975704E+01  5.79963534E+00
  1.55396162E+01  3.59993359E+00  1.01376175E+00  2.70005823E-01  8.00000000E-01
Contraction coefficients                   R   N=          60
  1.83473713E-03  1.40373228E-02  6.88426223E-02  2.32184443E-01  4.67941348E-01
  3.62311985E-01 -1.19332420E-01 -1.60854152E-01  1.14345644E+00  1.00000000E+00
  1.00000000E+00  1.83473713E-03  1.40373228E-02  6.88426223E-02  2.32184443E-01
  4.67941348E-01  3.62311985E-01 -1.19332420E-01 -1.60854152E-01  1.14345644E+00
  1.00000000E+00  1.00000000E+00  1.83473713E-03  1.40373228E-02  6.88426223E-02
  2.32184443E-01  4.67941348E-01  3.62311985E-01 -1.19332420E-01 -1.60854152E-01
  1.14345644E+00  1.00000000E+00  1.00000000E+00  3.34946043E-02  2.34726953E-01
  8.13757326E-01  1.00000000E+00  3.34946043E-02  2.34726953E-01  8.13757326E-01
  1.00000000E+00  3.34946043E-02  2.34726953E-01  8.13757326E-01  1.00000000E+00
  3.34946043E-02  2.34726953E-01  8.13757326E-01  1.00000000E+00  1.83107443E-03
  1.39501722E-02  6.84450781E-02  2.32714336E-01  4.70192898E-01  3.58520853E-01
 -1.10777550E-01 -1.48026263E-01  1.13076702E+00  1.00000000E+00  1.00000000E+00
P(S=P) Contraction coefficients            R   N=          60
  0.00000000E+00  0.00000000E+00  0.00000000E+00  0.00000000E+00  0.00000000E+00
  0.00000000E+00  6.89990666E-02  3.16423961E-01  7.44308291E-01  1.00000000E+00
  0.00000000E+00  0.00000000E+00  0.00000000E+00  0.00000000E+00  0.00000000E+00
  0.00000000E+00  0.00000000E+00  6.89990666E-02  3.16423961E-01  7.44308291E-01
  1.00000000E+00  0.00000000E+00  0.00000000E+00  0.00000000E+00  0.00000000E+00
  0.00000000E+00  0.00000000E+00  0.00000000E+00  6.89990666E-02  3.16423961E-01
  7.44308291E-01  1.00000000E+00  0.00000000E+00  0.00000000E+00  0.00000000E+00
  0.00000000E+00  0.00000000E+00  0.00000000E+00  0.00000000E+00  0.00000000E+00
  0.00000000E+00  0.00000000E+00  0.00000000E+00  0.00000000E+00  0.00000000E+00
  0.00000000E+00  0.00000000E+00  0.00000000E+00  0.00000000E+00  0.00000000E+00
  0.00000000E+00  0.00000000E+00  0.00000000E+00  0.00000000E+00  0.00000000E+00
  7.08742682E-02  3.39752839E-01  7.27158577E-01  1.00000000E+00  0.00000000E+00
Coordinates of each shell                  R   N=          72
  1.53309004E+00  8.78160957E-01  1.61476850E-04  1.53309004E+00  8.78160957E-01
  1.61476850E-04  1.53309004E+00  8.78160957E-01  1.61476850E-04  1.53309004E+00
  8.78160957E-01  1.61476850E-04 -1.26040824E+00  1.13884714E+00 -1.57027151E-04
 -1.26040824E+00  1.13884714E+00 -1.57027151E-04 -1.26040824E+00  1.13884714E+00
 -1.57027151E-04 -1.26040824E+00  1.13884714E+00 -1.57027151E-04 -2.77502165E+00
 -8.85483328E-01  8.45749366E-05 -2.77502165E+00 -8.85483328E-01  8.45749366E-05
 -2.77502165E+00 -8.85483328E-01  8.45749366E-05 -2.77502165E+00 -8.85483328E-01
  8.45749366E-05 -2.01732532E+00  3.05138794E+00 -4.42243181E-04 -2.01732532E+00
  3.05138794E+00 -4.42243181E-04 -4.82054382E+00 -7.21053696E-01 -3.29222410E-05
 -4.82054382E+00 -7.21053696E-01 -3.29222410E-05 -1.96699282E+00 -2.77365728E+00
  4.58825164E-04 -1.96699282E+00 -2.77365728E+00  4.58825164E-04  2.59673446E+00
  2.68949258E+00  7.03086653E-04  2.59673446E+00  2.68949258E+00  7.03086653E-04
  2.65277082E+00 -1.12941477E+00 -1.52611776E-04  2.65277082E+00 -1.12941477E+00
 -1.52611776E-04  2.65277082E+00 -1.12941477E+00 -1.52611776E-04  2.65277082E+00
 -1.12941477E+00 -1.52611776E-04
Constraint Structure                       R   N=          24
  1.53309004E+00  8.78160957E-01  1.61476850E-04 -1.26040824E+00  1.13884714E+00
 -1.57027151E-04 -2.77502165E+00 -8.85483328E-01  8.45749366E-05 -2.01732532E+00
  3.05138794E+00 -4.42243181E-04 -4.82054382E+00 -7.21053696E-01 -3.29222410E-05
 -1.96699282E+00 -2.77365728E+00  4.58825164E-04  2.59673446E+00  2.68949258E+00
  7.03086653E-04  2.65277082E+00 -1.12941477E+00 -1.52611776E-04
Num ILSW                                   I              100
ILSW                                       I   N=         100
           0           1           0           0           2           0
           0           0           0           0         402          -1
           0           0           0           0           2           0
           0           0           1           0           1           0
           1           0           0           0           0           0
           0           0      100000           0          -1           0
           0           0           0           0           0           0
           0           0           0           1           0           0
           0           0           1           0           0           0
           0           0           4          41           0           0
           0           0           5           0           0           0
           0           0           0           0           0           0
           0           0           0           0           0           0
           0           0           0           0           0           0
           0           0           0           0           0           0
           0           0           0           0           0           0
           0           0           0           0
Num RLSW                                   I               41
RLSW                                       R   N=          41
  8.00000000E-01  7.20000000E-01  1.00000000E+00  8.10000000E-01  2.00000000E-01
  0.00000000E+00  0.00000000E+00  1.00000000E+00  0.00000000E+00  0.00000000E+00
  0.00000000E+00  0.00000000E+00  1.00000000E+00  0.00000000E+00  0.00000000E+00
  0.00000000E+00  0.00000000E+00  1.00000000E+00  0.00000000E+00  0.00000000E+00
  0.00000000E+00  0.00000000E+00  1.00000000E+00  0.00000000E+00  0.00000000E+00
  0.00000000E+00  0.00000000E+00  1.00000000E+00  0.00000000E+00  0.00000000E+00
  0.00000000E+00  0.00000000E+00  1.00000000E+00  0.00000000E+00  0.00000000E+00
  0.00000000E+00  0.00000000E+00  0.00000000E+00  1.00000000E+00  1.00000000E+00
  0.00000000E+00
MxBond                                     I                3
NBond                                      I   N=           8
           3           3           3           1           1           1
           1           1
IBond                                      I   N=          24
           2           7           8           1           3           4
           2           5           6           2           0           0
           3           0           0           3           0           0
           1           0           0           1           0           0
RBond                                      R   N=          24
  1.00000000E+00  1.00000000E+00  2.00000000E+00  1.00000000E+00  2.00000000E+00
  1.00000000E+00  2.00000000E+00  1.00000000E+00  1.00000000E+00  1.00000000E+00
  0.00000000E+00  0.00000000E+00  1.00000000E+00  0.00000000E+00  0.00000000E+00
  1.00000000E+00  0.00000000E+00  0.00000000E+00  1.00000000E+00  0.00000000E+00
  0.00000000E+00  2.00000000E+00  0.00000000E+00  0.00000000E+00
Virial Ratio                               R      2.009407180710862E+00
SCF Energy                                 R     -1.919093274270865E+02
Total Energy                               R     -1.919093274270865E+02
RMS Force                                  R      3.721681247786546E-05
RMS Density                                R      2.163369055463120E-09
External E-field                           R   N=          35
  0.00000000E+00  0.00000000E+00  0.00000000E+00  0.00000000E+00  0.00000000E+00
  0.00000000E+00  0.00000000E+00  0.00000000E+00  0.00000000E+00  0.00000000E+00
  0.00000000E+00  0.00000000E+00  0.00000000E+00  0.00000000E+00  0.00000000E+00
  0.00000000E+00  0.00000000E+00  0.00000000E+00  0.00000000E+00  0.00000000E+00
  0.00000000E+00  0.00000000E+00  0.00000000E+00  0.00000000E+00  0.00000000E+00
  0.00000000E+00  0.00000000E+00  0.00000000E+00  0.00000000E+00  0.00000000E+00
  0.00000000E+00  0.00000000E+00  0.00000000E+00  0.00000000E+00  0.00000000E+00
IOpCl                                      I                0
IROHF                                      I                0
Alpha Orbital Energies                     R   N=          68
 -1.91476095E+01 -1.02777942E+01 -1.02142364E+01 -1.02072577E+01 -1.04170306E+00
 -7.93396116E-01 -6.59056546E-01 -5.45881905E-01 -5.09791029E-01 -4.46635261E-01
 -4.25993685E-01 -3.96235144E-01 -3.86006912E-01 -2.86696153E-01 -2.57324697E-01
 -6.83189194E-02  6.63229137E-02  1.01030040E-01  1.29390194E-01  1.60724231E-01
  1.86711215E-01  2.59394080E-01  3.20242003E-01  3.31848945E-01  5.11173852E-01
  5.11677570E-01  5.78699599E-01  5.79020017E-01  5.95843507E-01  6.43884614E-01
  6.54238589E-01  6.98124379E-01  7.99040797E-01  8.36031657E-01  8.44604506E-01
  8.62150601E-01  9.06008829E-01  9.52712851E-01  9.90095226E-01  1.08418857E+00
  1.10951681E+00  1.12866615E+00  1.27615425E+00  1.33439198E+00  1.43133280E+00
  1.54207368E+00  1.55965083E+00  1.65300622E+00  1.71864533E+00  1.79273920E+00
  1.83294370E+00  1.91415194E+00  1.99809197E+00  2.04289430E+00  2.16294461E+00
  2.18997211E+00  2.31853661E+00  2.33243508E+00  2.51557777E+00  2.54704484E+00
  2.62119832E+00  2.76216442E+00  2.90731224E+00  3.04906655E+00  3.85605851E+00
  4.07305876E+00  4.13958614E+00  4.38837596E+00
Alpha MO coefficients                      R   N=        4624
  7.21884668E-06  5.08914372E-04 -4.91202961E-05  1.09596341E-05 -6.23693165E-09
 -2.99980932E-03 -1.14737917E-03  3.26070981E-03  4.93473430E-07 -2.42054838E-04
 -7.01110041E-04 -2.65079090E-05  3.93131243E-04  6.74546076E-08 -1.28421245E-07
 -2.18387599E-05 -8.66420790E-05  5.32487599E-05  6.93784868E-05  1.52420675E-08
  1.16989165E-03 -7.43816651E-04 -1.86453933E-03 -5.04239764E-08  1.75317972E-05
 -1.83468397E-05 -4.79323073E-05  1.08789606E-04 -1.29492642E-08 -1.12095716E-08
  4.38881087E-06  3.08874220E-05 -1.64207808E-05 -6.27324340E-05 -1.67800187E-08
 -1.59306426E-03 -6.13889346E-04 -7.42311198E-04  2.28386608E-07  1.49965464E-05
 -6.41098100E-05  1.90038912E-05 -5.49042258E-05  2.31552648E-08  3.06156217E-08
  1.37256189E-04  3.83436484E-04  1.36297424E-05 -1.20147331E-04  1.16659415E-04
 -2.68478298E-04 -6.21568640E-05 -6.01854690E-04  9.92748907E-01  2.56570469E-02
 -5.81951190E-04  1.01459362E-03  1.58216101E-07  1.40573077E-02 -9.02404844E-04
  1.39154869E-03  2.50348265E-07 -7.99165877E-03 -7.74047090E-03 -8.15862048E-03
 -2.77044715E-04 -4.52672751E-08  7.94658760E-08  9.92828814E-01  4.87140530E-02
  3.25172071E-04 -7.73941983E-04 -1.33934997E-07 -8.93074454E-03  2.09390605E-03
 -3.00830410E-03 -2.54453088E-07 -9.15147692E-03 -8.67662429E-03 -9.70011071E-03
 -5.22582119E-04 -5.50139813E-08  1.99886581E-07  1.91361956E-03  2.44546759E-05
 -3.32075037E-04 -1.76051801E-05 -3.77591405E-08  2.29881949E-03  2.38510131E-03
  1.93023468E-03  1.14439340E-07 -5.74250873E-04 -2.27144529E-04 -1.25679550E-04
 -4.37909932E-05 -2.67177964E-08  2.68696317E-09 -3.26428901E-05 -2.06085925E-04
 -1.75802811E-05  8.15262221E-05 -2.85870555E-08  1.95805973E-03  8.76756054E-04
  7.77546206E-04 -1.08378063E-07  4.07998325E-05  1.06056057E-04 -9.20710761E-05
  8.01049791E-05 -1.54275560E-09 -5.01647860E-08 -2.28493832E-04 -5.37167240E-04
 -2.24158205E-05  3.10710562E-04 -1.12387463E-04  6.55617747E-05 -2.27040146E-04
  2.44741777E-03 -1.32623251E-04  4.24624379E-04  3.37139947E-05 -3.32805610E-05
  1.26064522E-08 -3.11366752E-03  8.69652415E-04 -1.81571250E-03 -3.74832126E-07
  1.66271384E-04 -1.90768277E-04  4.31233372E-04  2.74585742E-04  3.12131515E-08
 -1.36830155E-07 -1.49677800E-04 -1.92699512E-04  5.90210517E-05  5.91047262E-05
  1.15426768E-08  6.33005302E-04 -5.94136254E-04 -3.28440332E-04 -1.30360722E-07
  4.35031787E-05 -5.31287572E-06 -7.44535394E-05  2.96839678E-05  6.84997199E-09
 -1.42159527E-08  6.04616128E-02  2.55218960E-03  2.44265996E-04  3.42354154E-04
 -3.83876324E-08  3.18901041E-03 -1.52949967E-03 -1.23601360E-03  1.34381921E-07
 -8.58747548E-04 -8.43763090E-04 -7.04444156E-04 -4.27297447E-05  4.40211086E-10
  2.43877786E-08  9.90843430E-01  4.91481318E-02  2.36021305E-05  9.51349827E-05
  1.90609780E-08 -1.26498989E-02 -4.90061632E-04 -7.84846965E-04  4.99114097E-08
 -9.35205788E-03 -9.31253889E-03 -9.77710916E-03  1.53484203E-04  6.84619363E-10
 -8.28417940E-08 -1.01606849E-04  2.35236181E-06 -3.49180445E-04  2.16710156E-03
 -3.21065693E-04  2.10534136E-03  1.38785194E-05  3.42842266E-04  1.94942802E-06
  8.28896400E-06  5.38529456E-06 -1.01771528E-05  3.01594255E-09 -1.66954155E-04
  1.14626033E-04  6.26248930E-05 -5.16985263E-10 -1.65038240E-06  2.57603644E-05
 -2.05346101E-05 -2.51363827E-06  6.13969350E-09  8.78144636E-09 -2.15919610E-03
 -3.48598861E-04  2.75332714E-04 -2.48198926E-05  4.34796487E-08  5.24266159E-03
 -2.15738844E-03 -1.17920651E-03 -3.37955863E-07 -4.98217384E-04 -1.46646682E-04
 -1.39379528E-04  1.16040546E-04 -6.06626148E-08  5.59438270E-08  9.90921129E-01
  4.96075009E-02  5.32380195E-05 -2.09258593E-04  1.11843773E-07 -1.61105794E-02
 -8.19669686E-04  2.72507423E-03 -5.80826744E-07 -9.26061438E-03 -9.18660062E-03
 -9.59083653E-03  2.00750278E-04  3.93242363E-09 -4.50115962E-08 -6.09354096E-02
 -3.56685208E-03 -2.16687049E-04 -2.88537226E-04  4.23711950E-08  6.63780752E-03
  2.05653639E-03  1.43278759E-03 -1.14533877E-07  3.60028795E-04  2.42411330E-04
  4.89164198E-04 -6.74915595E-05  9.78578920E-10  4.55412910E-08 -4.04917182E-04
  1.43197782E-03 -2.10914352E-05  4.81905716E-05 -1.27340604E-04 -5.65979296E-04
 -4.12867260E-05  3.49570962E-04  5.04448545E-05  1.95813335E-04 -3.01103436E-05
  3.19489149E-05  4.20357525E-08 -1.62718866E-03  4.84088785E-04 -2.19861902E-04
 -1.15976772E-07  1.65329282E-04  2.29779367E-04  6.26586927E-05  2.65860790E-05
  3.76801048E-08  4.48765411E-08 -1.18347985E-01  2.29774470E-01  8.36978108E-02
 -1.60775087E-01 -2.55621312E-05  8.22120530E-02 -5.09520561E-03  3.61399511E-02
  6.20428138E-06 -8.81224585E-03  1.48460811E-02 -1.97044720E-02 -1.97784134E-02
 -2.90208183E-06  6.37853152E-06 -1.99946124E-02  3.54584683E-02  2.62162448E-02
 -1.09672742E-02  2.20438607E-06  2.46160358E-02 -4.15236197E-03 -2.56205633E-02
 -8.17706203E-07  6.95838973E-03 -4.52279641E-04 -2.53959934E-03 -2.42456251E-03
  5.20993851E-07 -5.74311351E-07 -7.41565653E-03  1.38822088E-02  8.49432614E-03
  3.48655782E-03 -4.54715178E-07 -1.28759477E-02 -3.18944479E-03 -4.97373342E-03
  1.79352201E-06  1.19737390E-03 -2.25095831E-04 -9.19748695E-04  3.12344844E-04
  4.96397945E-09  1.74214218E-09  6.14271290E-03  6.52532998E-03  1.66664139E-03
  6.60392147E-04  4.78858680E-03  3.42670608E-03  2.79336989E-02 -1.61371975E-02
 -1.94726537E-01  4.25371048E-01 -8.10492109E-02  1.40881949E-01  2.22400660E-05
  3.96192198E-01 -2.98939024E-02  4.59936277E-02  7.82536055E-06 -5.06864536E-03
  5.02131249E-03 -5.97553807E-03 -1.05417824E-02 -2.66557040E-06  1.53159832E-06
 -4.64320058E-02  9.28179786E-02 -1.22157561E-01  5.68591801E-02  9.20876478E-07
  7.59565386E-02 -2.38111135E-02 -1.56007542E-03 -3.95602259E-07  1.14729151E-02
 -6.95827876E-03 -3.79900678E-03  6.28562569E-03  2.92272819E-06 -4.54408780E-07
 -1.64004317E-01  3.21163643E-01 -2.83131924E-02 -6.95911744E-02  1.64652326E-05
  2.17134669E-01 -4.46112961E-03  1.80164229E-02  8.00194714E-07 -7.69695366E-05
  4.46071657E-03 -1.58567984E-02  4.41183406E-03  1.01921684E-06 -3.59797663E-06
 -1.43453772E-01  2.78245848E-01  6.32315242E-02  7.99764990E-02 -6.93238970E-06
  2.21851021E-01  8.09098950E-03  5.58749569E-03  4.61394438E-07  3.21736546E-03
  4.89671494E-03 -1.48699234E-02  5.11070111E-03  5.86679532E-07 -3.40066860E-06
  8.37965895E-02  6.48113483E-03  7.15665128E-02  1.14752941E-02  7.18602853E-02
  6.12053983E-03  2.55129523E-02  8.97911172E-03  4.33482843E-02 -9.72994976E-02
 -1.50257387E-02 -1.50423782E-02 -3.81181724E-06 -1.09974513E-01 -6.49698800E-03
 -3.43092476E-03 -1.05506336E-06  3.44712020E-03  2.37739239E-04  8.18024317E-05
 -1.17811990E-03  7.63029528E-08 -7.47850744E-08  1.19136790E-01 -2.50811429E-01
  1.00377085E-01 -1.54200474E-01 -1.26940095E-05 -2.05209938E-01  2.60046909E-02
 -6.77808103E-02 -8.29702019E-06 -3.46845754E-03  6.07005727E-03  8.79393648E-03
 -8.09455696E-03 -4.65470024E-06 -1.82508991E-06  5.49817061E-02 -1.11143706E-01
 -1.86820520E-01 -1.22983226E-01 -3.67783676E-06 -9.59457354E-02 -4.11254473E-02
 -2.94813979E-02  2.34739605E-07 -8.41471046E-03  5.27982444E-03  4.98521802E-03
  7.82600850E-03 -3.80968390E-06  1.17697545E-07 -1.26725338E-01  2.53095274E-01
 -4.13262209E-02 -2.53437206E-02  9.50773809E-07  2.26162942E-01 -2.12283495E-02
 -1.54899684E-02  1.16757255E-06  3.33088534E-03  1.04475136E-03 -1.18681191E-02
 -6.11075184E-03  1.56031654E-06 -3.17426760E-06 -6.14670680E-02 -2.39508269E-02
  1.13289755E-01  3.89538524E-02  9.94872615E-02  3.46532850E-02 -1.20441616E-01
 -3.76592344E-02 -5.75627825E-02  1.34118584E-01  1.98429126E-02 -4.52866190E-02
 -2.91156868E-06  1.41871806E-01  1.54957722E-02 -3.24373228E-02 -2.95644710E-06
 -9.17555191E-04 -6.12975547E-03  1.55075928E-03  4.26602968E-03  1.31655254E-07
 -1.24075294E-06  9.23833406E-02 -1.99662792E-01 -1.24748697E-01 -1.41775829E-01
 -6.01633595E-05 -1.99379403E-01 -2.63000687E-02 -7.38951484E-02 -2.39604308E-05
  7.97715401E-03 -8.73494454E-04  6.86165490E-03 -1.27030050E-02 -1.90246714E-06
 -3.24687290E-06 -9.55927198E-02  1.96715859E-01 -1.08354892E-01  7.21699224E-02
 -3.11393120E-05  1.87301815E-01 -1.88933216E-02  5.50344096E-02 -1.25722851E-05
 -1.04510794E-02  5.51530640E-03 -7.28427350E-03 -8.74865054E-03 -9.33602850E-07
 -2.04574734E-06  6.58199699E-02 -1.35539617E-01  9.66829087E-02  2.05842806E-01
 -3.52562725E-05 -1.39281149E-01  4.41781064E-02  8.07088611E-02 -1.60914461E-05
 -7.30983600E-03  2.61722443E-03  5.46674843E-03  1.20414351E-02 -3.27038812E-06
  1.26766642E-06  1.40981900E-01  6.71881677E-02 -1.04188274E-01 -5.15851188E-02
 -1.32762147E-01 -5.84336738E-02 -1.70285750E-01 -8.77465352E-02 -5.65273799E-02
  1.28219384E-01 -3.31535869E-03 -1.40955218E-01 -4.07723565E-05  1.80982136E-01
  2.48947972E-03 -7.20145924E-02 -2.11018377E-05  1.97661707E-03 -1.46531685E-02
  1.25337588E-03  2.18651185E-03  1.10944577E-06 -4.55508486E-06 -1.27617504E-02
  3.21231188E-02 -2.32725685E-01 -1.58020614E-01 -3.95412678E-05  2.02277019E-02
 -7.01803578E-02 -5.65188804E-02 -8.38624878E-06 -2.63601291E-04 -5.81733948E-03
 -6.37741229E-04  4.18449619E-03 -4.49157028E-07 -1.79278159E-06  3.78303781E-03
 -3.93119109E-03  2.04844694E-01 -2.24837950E-01  3.80845390E-05 -1.32230942E-02
  6.13783501E-02 -7.26670441E-02  9.83268807E-06  2.03185192E-04 -6.04559392E-03
  8.04896776E-04 -1.06927406E-03  2.52608962E-07  2.47480608E-11  6.43754166E-03
 -1.47946892E-02  2.33091328E-01 -1.13566784E-01  2.78628712E-05 -1.56158181E-02
  9.08715004E-02 -4.97077459E-02  1.25066223E-05 -2.37338471E-03  1.74910067E-03
  1.36432849E-04  7.92978577E-04 -2.52889185E-08 -7.67663380E-07 -1.55432081E-01
 -1.10768905E-01 -1.33426046E-01 -8.30928223E-02  9.50814053E-02  5.25392976E-02
 -1.13380272E-01 -8.02732731E-02  2.09793068E-02 -4.71412984E-02 -1.75139508E-01
 -3.89666329E-02 -1.14072152E-05 -7.95819482E-02 -9.43961401E-02 -2.28416982E-02
 -6.37243808E-06  1.25306478E-02 -6.30293723E-03 -1.18363510E-03 -9.23546929E-03
 -1.27149436E-06 -1.31938399E-06 -3.01207477E-02  7.66680514E-02  2.05572640E-01
 -1.81590576E-01  1.67196728E-05  6.98145464E-02  4.65920300E-02 -4.32365838E-02
  1.23959517E-05 -4.53175487E-03 -7.97213440E-04 -5.76175325E-03 -1.03836733E-03
 -1.68588215E-06  6.07931898E-07 -5.97936889E-03  1.47608568E-02 -1.89739507E-01
 -2.09413969E-01  1.39604928E-05 -9.26827389E-03 -8.60704838E-02 -7.47346736E-02
  2.80299628E-06 -9.38223277E-04 -3.87171937E-03  8.44726935E-05  6.30587686E-03
 -1.62928345E-06  2.34983562E-07 -5.36682059E-03  1.43922922E-02  8.77025589E-02
  2.77514544E-01 -4.40049973E-05 -1.58593900E-02  1.70530786E-02  8.29758671E-02
 -1.16295946E-05 -3.59681461E-03 -5.28439301E-03  1.80378420E-04  1.07690531E-02
 -1.81372199E-06  1.72405351E-06 -7.16274485E-02 -6.37933948E-02 -3.68822783E-02
 -3.62599277E-02 -1.30930438E-01 -1.21669810E-01  1.89983031E-03 -9.77261162E-03
  7.01121250E-02 -1.37134211E-01 -1.19799688E-01  3.59773593E-01  8.73787843E-05
 -3.34829327E-01 -4.96193510E-02  1.77802876E-01  4.47426510E-05  6.29433793E-03
  2.65461356E-02  2.51138889E-03 -9.87409853E-03 -2.32916364E-06  6.86664939E-06
  2.73581725E-02 -7.14694363E-02  1.44175603E-01  2.54361119E-01  2.09404936E-04
 -3.72104618E-02  8.30890734E-02  1.26227444E-02  8.96169690E-05  1.12978224E-02
  2.39352159E-03  3.54383011E-03  1.34473735E-02  2.12676228E-06 -4.83576081E-06
 -1.30939252E-02  3.07610397E-02 -1.34350326E-01 -1.95946369E-01  9.93406301E-05
 -2.16013057E-03 -7.71642809E-03 -7.23810380E-03  4.88470363E-05 -1.12112217E-02
  3.67866866E-03  4.68424334E-05  1.24621741E-02  2.50249743E-06 -2.08763813E-06
 -1.66692524E-02  3.68068512E-02  3.19035296E-01  7.61302513E-02  4.05615003E-05
  8.11319024E-02  1.20036255E-01  4.41254493E-02  1.74809494E-05 -1.62499852E-02
  8.34718410E-03 -5.58007360E-04  5.56968524E-03  8.13998177E-07  3.67088255E-07
 -7.01467535E-02 -7.71234604E-02 -1.84026693E-01 -1.63612610E-01  4.60985588E-02
  3.40872970E-02  1.44840968E-01  1.46643886E-01 -3.66734962E-02  8.03525796E-02
  2.83934775E-01 -1.40470632E-01  1.39383913E-04  1.27917923E-01  1.63967559E-01
 -8.19188070E-02  8.02907966E-05 -1.20747531E-02 -1.88049600E-03  2.69329901E-03
  1.70747407E-02 -3.38101713E-06  8.87566480E-06 -1.00034174E-05  2.29223190E-05
 -1.47174545E-04 -1.28456825E-04  3.62213238E-01  3.61569624E-05 -8.13849208E-05
 -4.67234711E-05  2.05415213E-01 -4.55779343E-06  7.42011292E-06 -7.16657646E-06
 -3.27283359E-06  5.48037494E-03 -2.01485927E-02  6.15561103E-06 -9.83784612E-06
  6.00516301E-05  6.74718726E-05  1.71314360E-01 -3.98108898E-05  3.01880800E-06
  2.86301308E-05  9.10066430E-02  5.45856538E-06 -6.31293709E-06  3.43058005E-06
 -5.40523734E-06  7.77092236E-03 -4.69934264E-03  1.35734741E-05 -3.17395991E-05
 -1.78576806E-04  4.56197230E-05  9.37562140E-02 -3.94638862E-05 -4.81732809E-05
  3.26780396E-05  5.92372247E-02  1.11417309E-05 -6.89091945E-06 -4.53580038E-07
  1.40005266E-06  5.16458698E-03  4.66263440E-03  3.67581104E-06  3.03080839E-06
  1.06072856E-04  1.10461571E-04 -7.17808701E-05 -3.91783043E-05 -4.67781131E-05
 -4.83050887E-05 -5.12263305E-07 -1.74623360E-07 -1.38373050E-04 -1.25893520E-04
  4.41607109E-01  1.34098171E-05 -8.26380562E-05 -7.09491805E-05  2.69674672E-01
  6.79508827E-06 -1.41486726E-05  6.39997251E-06 -4.21324629E-06 -1.53824868E-02
  2.56346809E-02 -1.80971009E-02  3.34584738E-02 -1.86531487E-01  1.27402511E-01
 -6.66157762E-05  9.96700773E-02 -6.62624395E-02  1.11806233E-02 -4.71089915E-05
  3.08097559E-03 -2.00265225E-03  2.10059235E-03  1.39574978E-02 -2.57078465E-07
  7.16399946E-06  7.35361848E-03 -6.90256803E-03  1.19197894E-01 -2.33840676E-01
  1.57577999E-05 -6.80291095E-02  4.24170573E-02 -5.61845189E-02 -1.02785158E-06
  1.63336421E-02 -2.34512809E-02  1.73423589E-03  1.30030840E-02 -8.72271956E-07
  5.50101841E-06 -5.64151663E-03  1.12036488E-02 -1.85734912E-01  2.65010738E-01
 -7.28276980E-05  2.58161479E-02 -5.17756018E-02  1.24363325E-01 -3.97719576E-05
  1.94783460E-02 -2.25017420E-02 -6.36340192E-04  1.15411755E-02 -2.12242930E-06
  4.39250879E-06 -2.02091455E-01 -2.00756748E-01  1.55510883E-01  1.50731013E-01
 -2.11015904E-01 -1.70154791E-01  3.62575945E-02  3.50327101E-02 -2.66083692E-02
  5.25464550E-02  3.67376641E-02 -2.43992715E-01 -1.62990097E-04  1.22578011E-01
  1.94311122E-02 -1.34487944E-01 -1.00211114E-04  6.29952271E-04 -1.37520990E-02
  5.49003396E-04  3.17250344E-03  4.77803479E-06 -9.38021587E-06  1.60436107E-06