
                                 *****************
                                 * O   R   C   A *
                                 *****************

           --- An Ab Initio, DFT and Semiempirical electronic structure package ---

                  #######################################################
                  #                        -***-                        #
                  #  Department of molecular theory and spectroscopy    #
                  #              Directorship: Frank Neese              #
                  # Max Planck Institute for Chemical Energy Conversion #
                  #                  D-45470 Muelheim/Ruhr              #
                  #                       Germany                       #
                  #                                                     #
                  #                  All rights reserved                #
                  #                        -***-                        #
                  #######################################################


                         Program Version 3.0.3 - RELEASE   -


 With contributions from (in alphabetic order):
   Ute Becker             : Parallelization
   Dmytro Bykov           : SCF Hessian
   Dmitry Ganyushin       : Spin-Orbit,Spin-Spin,Magnetic field MRCI
   Andreas Hansen         : Spin unrestricted coupled pair/coupled cluster methods
   Dimitrios Liakos       : Extrapolation schemes; parallel MDCI
   Robert Izsak           : Overlap fitted RIJCOSX, COSX-SCS-MP3
   Christian Kollmar      : KDIIS, OOCD, Brueckner-CCSD(T), CCSD density
   Simone Kossmann        : Meta GGA functionals, TD-DFT gradient, OOMP2, MP2 Hessian
   Taras Petrenko         : DFT Hessian,TD-DFT gradient, ASA and ECA modules, normal mode analysis, Resonance Raman, ABS, FL, XAS/XES, NRVS
   Christoph Reimann      : Effective Core Potentials
   Michael Roemelt        : Restricted open shell CIS
   Christoph Riplinger    : Improved optimizer, TS searches, QM/MM, DLPNO-CCSD
   Barbara Sandhoefer     : DKH picture change effects
   Igor Schapiro          : Molecular dynamics
   Kantharuban Sivalingam : CASSCF convergence, NEVPT2
   Boris Wezisla          : Elementary symmetry handling
   Frank Wennmohs         : Technical directorship


 We gratefully acknowledge several colleagues who have allowed us to
 interface, adapt or use parts of their codes:
   Stefan Grimme, W. Hujo, H. Kruse, T. Risthaus : VdW corrections, initial TS optimization,
                                                   DFT functionals, gCP
   Ed Valeev                                     : LibInt (2-el integral package), F12 methods
   Garnet Chan, S. Sharma, R. Olivares           : DMRG
   Ulf Ekstrom                                   : XCFun DFT Library
   Mihaly Kallay                                 : mrcc  (arbitrary order and MRCC methods)
   Andreas Klamt, Michael Diedenhofen            : otool_cosmo (COSMO solvation model)
   Frank Weinhold                                : gennbo (NPA and NBO analysis)
   Christopher J. Cramer and Donald G. Truhlar   : smd solvation model


 Your calculation uses the libint2 library for the computation of 2-el integrals
 For citations please refer to: http://libint.valeyev.net

 This ORCA versions uses:
   CBLAS   interface :  Fast vector & matrix operations
   LAPACKE interface :  Fast linear algebra routines
   SCALAPACK package :  Parallel linear algebra routines


Your calculation utilizes the basis: 6-311G
Cite in your paper:
H, Li - Ne: R. Krishnan, J.S. Binkley, R. Seeger and J.A. Pople,
            J. Chem. Phys. 72, 650 (1980)
Na - Ar:    A.D. McLean and G.S. Chandler J. Chem. Phys. 72, 5639, (1980).
K  - Ca:    J-P. Blaudeau, M. P. McGrath, L.A. Curtiss and L. Radom,
            J. Chem. Phys. 107, 5016 (1997).
Ga - Kr:    L. A. Curtiss, M. P. McGrath, J-P. Blandeau, N. E. Davis,
            R. C. Binning, Jr. L. Radom, J. Chem. Phys. 103, 6104 (1995).

Your calculation utilizes diff. fcns from basis: 6-311++G(2d,2p)
Cite in your paper:
H, Li - Ne: R. Krishnan, J.S. Binkley, R. Seeger and J.A. Pople,
            J. Chem. Phys. 72, 650 (1980)
Na - Ar:    A.D. McLean and G.S. Chandler J. Chem. Phys. 72, 5639, (1980).
K  - Ca:    J-P. Blaudeau, M. P. McGrath, L.A. Curtiss and L. Radom,
            J. Chem. Phys. 107, 5016 (1997).
Ga - Kr:    L. A. Curtiss, M. P. McGrath, J-P. Blandeau, N. E. Davis,
            R. C. Binning, Jr. L. Radom, J. Chem. Phys. 103, 6104 (1995).
H - Ar:  R. Krishnan, J.S. Binkley, R. Seeger, J.A. Pople, J. Chem. Phys. 72,650 (1980)
H, Li-Cl: T. Clark, J. Chandrasekhar, P.V.R. Schleyer, J. Comp. Chem. 4, 294 (1983)

Your calculation utilizes pol. fcns from basis: 6-311++G(d,p)
Cite in your paper:
H, Li - Ne: R. Krishnan, J.S. Binkley, R. Seeger and J.A. Pople,
            J. Chem. Phys. 72, 650 (1980)
Na - Ar:    A.D. McLean and G.S. Chandler J. Chem. Phys. 72, 5639, (1980).
K  - Ca:    J-P. Blaudeau, M. P. McGrath, L.A. Curtiss and L. Radom,
            J. Chem. Phys. 107, 5016 (1997).
Ga - Kr:    L. A. Curtiss, M. P. McGrath, J-P. Blandeau, N. E. Davis,
            R. C. Binning, Jr. L. Radom, J. Chem. Phys. 103, 6104 (1995).
H - Ar:  R. Krishnan, J.S. Binkley, R. Seeger, J.A. Pople, J. Chem. Phys. 72,650 (1980)
H, Li-Cl: T. Clark, J. Chandrasekhar, P.V.R. Schleyer, J. Comp. Chem. 4, 294 (1983)

================================================================================
                                        WARNINGS
                       Please study these warnings very carefully!
================================================================================
Now building the actual basis set

WARNING: your system is open-shell and RHF/RKS was chosen
  ===> : WILL SWITCH to UHF/UKS



INFO   : the flag for use of LIBINT has been found!

================================================================================
                                       INPUT FILE
================================================================================
NAME = acrolein_orca_an.inp
|  1> # ================================================================
|  2> # Orca input file made in Gabedit
|  3> # ================================================================
|  4> !  HF
|  5> ! PrintBasis 6-311+G*
|  6> %output
|  7>      print[p_mos] 1
|  8>      print[p_overlap] 5 
|  9>  end #output
| 10> * xyz -1   2
| 11>  C  0.811276 0.464703 0.000085
| 12>  C  -0.666979 0.602652 -0.000083
| 13>  C  -1.468478 -0.468578 0.000045
| 14>  H  -1.067523 1.614725 -0.000234
| 15>  H  -2.550922 -0.381565 -0.000017
| 16>  H  -1.040888 -1.467756 0.000243
| 17>  H  1.374133 1.423218 0.000372
| 18>  O  1.403786 -0.597661 -0.000081
| 19> *
| 20> 
| 21>                          ****END OF INPUT****
================================================================================

                       ****************************
                       * Single Point Calculation *
                       ****************************

---------------------------------
CARTESIAN COORDINATES (ANGSTROEM)
---------------------------------
  C      0.811276    0.464703    0.000085
  C     -0.666979    0.602652   -0.000083
  C     -1.468478   -0.468578    0.000045
  H     -1.067523    1.614725   -0.000234
  H     -2.550922   -0.381565   -0.000017
  H     -1.040888   -1.467756    0.000243
  H      1.374133    1.423218    0.000372
  O      1.403786   -0.597661   -0.000081

----------------------------
CARTESIAN COORDINATES (A.U.)
----------------------------
  NO LB      ZA    FRAG    MASS        X           Y           Z
   0 C     6.0000    0    12.011          1.533089459023097          0.878161403611607          0.000160626721383
   1 C     6.0000    0    12.011         -1.260407647076663          1.138847234059910         -0.000156847269115
   2 C     6.0000    0    12.011         -2.775021253688412         -0.885484092380552          0.000085037676026
   3 H     1.0000    0     1.008         -2.017326111662016          3.051388031595993         -0.000442195915338
   4 H     1.0000    0     1.008         -4.820543968994667         -0.721053352289662         -0.000032125344277
   5 H     1.0000    0     1.008         -1.966993256085024         -2.773656871419721          0.000459203450543
   6 H     1.0000    0     1.008          2.596735041583611          2.689492248867136          0.000702978121819
   7 O     8.0000    0    15.999          2.652771090632778         -1.129415610925509         -0.000153067816848

--------------------------------
INTERNAL COORDINATES (ANGSTROEM)
--------------------------------
 C      0   0   0   0.000000     0.000     0.000
 C      1   0   0   1.484678     0.000     0.000
 C      2   1   0   1.337884   121.473     0.000
 H      2   1   3   1.088452   116.923   179.995
 H      3   2   1   1.085936   122.208   179.996
 H      3   2   1   1.086826   120.028     0.000
 H      1   2   3   1.111557   115.091   180.024
 O      1   2   3   1.216423   124.481     0.024

---------------------------
INTERNAL COORDINATES (A.U.)
---------------------------
 C      0   0   0   0.000000     0.000     0.000
 C      1   0   0   2.805634     0.000     0.000
 C      2   1   0   2.528235   121.473     0.000
 H      2   1   3   2.056876   116.923   179.995
 H      3   2   1   2.052121   122.208   179.996
 H      3   2   1   2.053803   120.028     0.000
 H      1   2   3   2.100538   115.091   180.024
 O      1   2   3   2.298707   124.481     0.024

---------------------
BASIS SET INFORMATION
---------------------
There are 3 groups of distinct atoms

 Group   1 Type C   : 12s6p1d contracted to 5s4p1d pattern {63111/3111/1}
 Group   2 Type H   : 5s contracted to 3s pattern {311}
 Group   3 Type O   : 12s6p1d contracted to 5s4p1d pattern {63111/3111/1}

Atom   0C    basis set group =>   1
Atom   1C    basis set group =>   1
Atom   2C    basis set group =>   1
Atom   3H    basis set group =>   2
Atom   4H    basis set group =>   2
Atom   5H    basis set group =>   2
Atom   6H    basis set group =>   2
Atom   7O    basis set group =>   3

-------------------------
BASIS SET IN INPUT FORMAT
-------------------------

 # Basis set for element : H 
 NewGTO H 
 S 3 
   1      33.8650000000      0.0254938145
   2       5.0947900000      0.1903731086
   3       1.1587900000      0.8521614860
 S 1 
   1       0.3258400000      1.0000000000
 S 1 
   1       0.1027410000      1.0000000000
  end;

 # Basis set for element : C 
 NewGTO C 
 S 6 
   1    4563.2400000000      0.0019666502
   2     682.0240000000      0.0152306019
   3     154.9730000000      0.0761269097
   4      44.4553000000      0.2608010331
   5      13.0290000000      0.6164620782
   6       1.8277300000      0.2210060280
 S 3 
   1      20.9642000000      0.1146600807
   2       4.8033100000      0.9199996477
   3       1.4593300000     -0.0030306821
 P 3 
   1      20.9642000000      0.0402486927
   2       4.8033100000      0.2375939567
   3       1.4593300000      0.8158538515
 S 1 
   1       0.4834560000      1.0000000000
 P 1 
   1       0.4834560000      1.0000000000
 S 1 
   1       0.1455850000      1.0000000000
 P 1 
   1       0.1455850000      1.0000000000
 S 1 
   1       0.0438000000      1.0000000000
 P 1 
   1       0.0438000000      1.0000000000
 D 1 
   1       0.6260000000      1.0000000000
  end;

 # Basis set for element : O 
 NewGTO O 
 S 6 
   1    8588.5000000000      0.0018951501
   2    1297.2300000000      0.0143859006
   3     299.2960000000      0.0707320031
   4      87.3771000000      0.2400010105
   5      25.6789000000      0.5947970261
   6       3.7400400000      0.2808020123
 S 3 
   1      42.1175000000      0.1138890124
   2       9.6283700000      0.9208111006
   3       2.8533200000     -0.0032744704
 P 3 
   1      42.1175000000      0.0365113974
   2       9.6283700000      0.2371529830
   3       2.8533200000      0.8197019412
 S 1 
   1       0.9056610000      1.0000000000
 P 1 
   1       0.9056610000      1.0000000000
 S 1 
   1       0.2556110000      1.0000000000
 P 1 
   1       0.2556110000      1.0000000000
 S 1 
   1       0.0845000000      1.0000000000
 P 1 
   1       0.0845000000      1.0000000000
 D 1 
   1       1.2920000000      1.0000000000
  end;

------------------------------------------------------------------------------
                           ORCA GTO INTEGRAL CALCULATION
------------------------------------------------------------------------------

                         BASIS SET STATISTICS AND STARTUP INFO

 # of primitive gaussian shells          ...   96
 # of primitive gaussian functions       ...  160
 # of contracted shell                   ...   52
 # of contracted basis functions         ...  100
 Highest angular momentum                ...    2
 Maximum contraction depth               ...    6
 Integral package used                   ... LIBINT
 Integral threshhold            Thresh   ...  1.000e-10
 Primitive cut-off              TCut     ...  1.000e-11


                              INTEGRAL EVALUATION

 One electron integrals                  ... done
 Pre-screening matrix                    ... done
 Shell pair data                         ... done (   0.001 sec)

-------------------------------------------------------------------------------
                                 ORCA SCF
-------------------------------------------------------------------------------

------------
SCF SETTINGS
------------
Hamiltonian:
 Ab initio Hamiltonian  Method          .... Hartree-Fock(GTOs)


General Settings:
 Integral files         IntName         .... acrolein_orca_an
 Hartree-Fock type      HFTyp           .... UHF
 Total Charge           Charge          ....   -1
 Multiplicity           Mult            ....    2
 Number of Electrons    NEL             ....   31
 Basis Dimension        Dim             ....  100
 Nuclear Repulsion      ENuc            ....    104.3857846241 Eh

Convergence Acceleration:
 DIIS                   CNVDIIS         .... on
   Start iteration      DIISMaxIt       ....    12
   Startup error        DIISStart       ....  0.200000
   # of expansion vecs  DIISMaxEq       ....     5
   Bias factor          DIISBfac        ....   1.050
   Max. coefficient     DIISMaxC        ....  10.000
 Newton-Raphson         CNVNR           .... off
 SOSCF                  CNVSOSCF        .... off
 Level Shifting         CNVShift        .... on
   Level shift para.    LevelShift      ....    0.2500
   Turn off err/grad.   ShiftErr        ....    0.0010
 Zerner damping         CNVZerner       .... off
 Static damping         CNVDamp         .... on
   Fraction old density DampFac         ....    0.7000
   Max. Damping (<1)    DampMax         ....    0.9800
   Min. Damping (>=0)   DampMin         ....    0.0000
   Turn off err/grad.   DampErr         ....    0.1000
 Fernandez-Rico         CNVRico         .... off

SCF Procedure:
 Maximum # iterations   MaxIter         ....   125
 SCF integral mode      SCFMode         .... Direct
   Integral package                     .... LIBINT
 Reset frequeny         DirectResetFreq ....    20
 Integral Threshold     Thresh          ....  1.000e-10 Eh
 Primitive CutOff       TCut            ....  1.000e-11 Eh

Convergence Tolerance:
 Convergence Check Mode ConvCheckMode   .... Total+1el-Energy
 Energy Change          TolE            ....  1.000e-06 Eh
 1-El. energy change                    ....  1.000e-03 Eh
 DIIS Error             TolErr          ....  1.000e-06


Diagonalization of the overlap matrix:
Smallest eigenvalue                        ... 9.535e-05
Time for diagonalization                   ...    0.001 sec
Threshold for overlap eigenvalues          ... 1.000e-08
Number of eigenvalues below threshold      ... 0
Time for construction of square roots      ...    0.000 sec
Total time needed                          ...    0.001 sec

--------------
OVERLAP MATRIX
--------------
                  0          1          2          3          4          5    
      0       1.000000   0.878444  -0.000000   0.000000   0.000000   0.329179
      1       0.878444   1.000000   0.000000   0.000000   0.000000   0.418800
      2      -0.000000   0.000000   1.000000   0.000000   0.000000   0.000000
      3       0.000000   0.000000   0.000000   1.000000   0.000000   0.000000
      4       0.000000   0.000000   0.000000   0.000000   1.000000  -0.000000
      5       0.329179   0.418800   0.000000   0.000000  -0.000000   1.000000
      6       0.000000  -0.000000   0.629120   0.000000   0.000000   0.000000
      7       0.000000  -0.000000   0.000000   0.629120   0.000000   0.000000
      8       0.000000  -0.000000   0.000000   0.000000   0.629120   0.000000
      9       0.153761   0.187145  -0.000000   0.000000  -0.000000   0.774697
     10      -0.000000   0.000000   0.220230   0.000000   0.000000  -0.000000
     11      -0.000000   0.000000   0.000000   0.220230   0.000000  -0.000000
     12      -0.000000   0.000000   0.000000   0.000000   0.220230  -0.000000
     13       0.065562   0.078316  -0.000000   0.000000  -0.000000   0.410096
     14       0.000000  -0.000000   0.057350   0.000000   0.000000   0.000000
     15       0.000000   0.000000   0.000000   0.057350   0.000000   0.000000
     16       0.000000  -0.000000   0.000000   0.000000   0.057350   0.000000
     17       0.000000   0.000000   0.000000  -0.000000   0.000000   0.000000
     18       0.000000  -0.000000   0.000000   0.000000   0.000000   0.000000
     19       0.000000   0.000000  -0.000000   0.000000   0.000000   0.000000
     20       0.000000   0.000000   0.000000   0.000000   0.000000   0.000000
     21       0.000000   0.000000   0.000000  -0.000000   0.000000   0.000000
     22       0.000037   0.000004  -0.000000  -0.001184   0.000110   0.012189
     23       0.000004  -0.000001  -0.000000  -0.000428   0.000040   0.012997
     24       0.000000   0.000000   0.002170  -0.000003   0.000000   0.000008
     25       0.001184   0.000428  -0.000003  -0.022779   0.002328   0.066948
     26      -0.000110  -0.000040   0.000000   0.002328   0.001953  -0.006247
     27       0.012189   0.012997  -0.000008  -0.066948   0.006247   0.149153
     28       0.000005   0.000005   0.034467  -0.000022   0.000002   0.000033
     29       0.040332   0.046079  -0.000022  -0.163209   0.018447   0.289707
     30      -0.003764  -0.004300   0.000002   0.018447   0.032746  -0.027035
     31       0.051477   0.061439  -0.000009  -0.082383   0.007688   0.321087
     32       0.000012   0.000014   0.077292  -0.000018   0.000002   0.000060
     33       0.104720   0.127300  -0.000018  -0.083148   0.014972   0.526063
     34      -0.009772  -0.011879   0.000002   0.014972   0.075894  -0.049092
     35       0.046675   0.055642  -0.000003  -0.023980   0.002238   0.298945
     36       0.000006   0.000007   0.041017  -0.000003   0.000000   0.000036
     37       0.053787   0.064501  -0.000003   0.013757   0.002544   0.320510
     38      -0.005019  -0.006019   0.000000   0.002544   0.040779  -0.029910
     39      -0.023728  -0.027507   0.000025   0.098986  -0.009237  -0.124634
     40       0.000009   0.000011   0.068532  -0.000046   0.000005   0.000049
     41      -0.000001  -0.000001  -0.006395   0.000005   0.000007  -0.000005
     42       0.040388   0.046820  -0.000027  -0.167305   0.028403   0.212146
     43      -0.007604  -0.008815   0.000005   0.038007   0.064389  -0.039942
     44       0.000000  -0.000000  -0.000000  -0.000000  -0.000000   0.000047
     45      -0.000000   0.000000   0.000000   0.000000   0.000000   0.000029
     46       0.000000  -0.000000   0.000000  -0.000000  -0.000000   0.000000
     47       0.000000  -0.000000  -0.000000  -0.000002  -0.000001   0.000663
     48       0.000000  -0.000000  -0.000000  -0.000001  -0.000000   0.000271
     49       0.000047   0.000029  -0.000000  -0.000663  -0.000271   0.005309
     50       0.000000   0.000000   0.000221  -0.000000  -0.000000   0.000000
     51       0.000232   0.000161  -0.000000  -0.002774  -0.001226   0.015904
     52       0.000095   0.000066  -0.000000  -0.001226  -0.000281   0.006511
     53       0.007584   0.008719  -0.000000  -0.020284  -0.008304   0.068564
     54       0.000000   0.000000   0.012340  -0.000001  -0.000000   0.000003
     55       0.023745   0.027861  -0.000001  -0.048550  -0.024927   0.173240
     56       0.009720   0.011406  -0.000000  -0.024927   0.002135   0.070921
     57       0.025728   0.030562  -0.000000  -0.020550  -0.008413   0.171757
     58       0.000001   0.000001   0.022792  -0.000001  -0.000000   0.000005
     59       0.045720   0.054637  -0.000001  -0.013233  -0.014748   0.283991
     60       0.018717   0.022367  -0.000000  -0.014748   0.016754   0.116260
     61      -0.000070  -0.000034   0.000000   0.001176   0.000481  -0.007956
     62       0.000000   0.000000   0.000239  -0.000000  -0.000000   0.000000
     63       0.000000   0.000000   0.000098  -0.000000  -0.000000   0.000000
     64       0.000087   0.000042  -0.000000  -0.001383  -0.000762   0.009825
     65       0.000086   0.000042  -0.000000  -0.001498  -0.000414   0.009664
     66       0.000001   0.000000  -0.000000  -0.000036   0.000022   0.002048
     67       0.001616   0.001618  -0.000002  -0.008997   0.005507   0.033308
     68       0.021588   0.025485  -0.000006  -0.032586   0.019946   0.152715
     69       0.000000   0.000000   0.000000   0.000000   0.000000   0.000000
     70       0.000001   0.000001  -0.000000  -0.000017  -0.000004   0.000228
     71       0.001702   0.001936  -0.000000  -0.004960  -0.001249   0.017454
     72       0.000000  -0.000000   0.000000  -0.000000  -0.000000   0.000121
     73       0.000150   0.000129   0.000000  -0.000971  -0.001013   0.006675
     74       0.009509   0.011096   0.000001  -0.014505  -0.015134   0.075856
     75       0.010268   0.009055   0.000025   0.049042   0.083515   0.176433
     76       0.070492   0.084307   0.000044   0.086642   0.147547   0.411541
     77       0.077896   0.093563   0.000017   0.033862   0.057664   0.456233
     78       0.000092   0.000001  -0.000000   0.001776  -0.003185   0.022842
     79       0.000037  -0.000002  -0.000000   0.001216  -0.002180   0.023213
     80       0.000000   0.000000   0.003651   0.000003  -0.000004   0.000009
     81      -0.000731  -0.000115   0.000003  -0.005286   0.016022  -0.031837
     82       0.001311   0.000206  -0.000004   0.016022  -0.025078   0.057084
     83       0.011057   0.010392  -0.000012   0.044385  -0.079582   0.175833
     84       0.000005   0.000005   0.041654   0.000017  -0.000030   0.000037
     85      -0.017400  -0.018780   0.000017  -0.017730   0.106475  -0.130415
     86       0.031198   0.033672  -0.000030   0.106475  -0.149255   0.233832
     87       0.063997   0.076484  -0.000019   0.067527  -0.121075   0.383496
     88       0.000019   0.000023   0.119287   0.000018  -0.000033   0.000080
     89      -0.066926  -0.082417   0.000018   0.053681   0.117632  -0.284020
     90       0.119997   0.147772  -0.000033   0.117632  -0.091626   0.509244
     91       0.068145   0.081654  -0.000007   0.026082  -0.046764   0.410601
     92       0.000012   0.000015   0.080133   0.000005  -0.000008   0.000064
     93      -0.043154  -0.052278   0.000005   0.064041   0.028854  -0.227518
     94       0.077375   0.093734  -0.000008   0.028854   0.028399   0.407937
     95      -0.014757  -0.015572   0.000028  -0.047816   0.085733  -0.076514
     96      -0.000003  -0.000004  -0.030682  -0.000006   0.000027  -0.000018
     97       0.000006   0.000006   0.055013   0.000027  -0.000040   0.000032
     98      -0.013431  -0.014173   0.000017  -0.090325   0.051927  -0.069640
     99      -0.021746  -0.022947   0.000027  -0.041555   0.142463  -0.112753
                  6          7          8          9         10         11    
      0       0.000000   0.000000   0.000000   0.153761  -0.000000  -0.000000
      1      -0.000000  -0.000000  -0.000000   0.187145   0.000000   0.000000
      2       0.629120   0.000000   0.000000  -0.000000   0.220230   0.000000
      3       0.000000   0.629120   0.000000   0.000000   0.000000   0.220230
      4       0.000000   0.000000   0.629120  -0.000000   0.000000   0.000000
      5       0.000000   0.000000   0.000000   0.774697  -0.000000  -0.000000
      6       1.000000   0.000000   0.000000  -0.000000   0.653461   0.000000
      7       0.000000   1.000000   0.000000  -0.000000   0.000000   0.653461
      8       0.000000   0.000000   1.000000  -0.000000   0.000000   0.000000
      9      -0.000000  -0.000000  -0.000000   1.000000   0.000000   0.000000
     10       0.653461   0.000000   0.000000   0.000000   1.000000   0.000000
     11       0.000000   0.653461   0.000000   0.000000   0.000000   1.000000
     12       0.000000   0.000000   0.653461   0.000000   0.000000   0.000000
     13       0.000000   0.000000   0.000000   0.774408   0.000000   0.000000
     14       0.226365   0.000000   0.000000   0.000000   0.653055   0.000000
     15       0.000000   0.226365   0.000000   0.000000   0.000000   0.653055
     16       0.000000   0.000000   0.226365   0.000000   0.000000   0.000000
     17       0.000000   0.000000   0.000000   0.000000   0.000000   0.000000
     18       0.000000   0.000000   0.000000   0.000000   0.000000   0.000000
     19       0.000000   0.000000   0.000000   0.000000   0.000000   0.000000
     20       0.000000   0.000000   0.000000   0.000000   0.000000   0.000000
     21       0.000000   0.000000   0.000000   0.000000   0.000000   0.000000
     22      -0.000005  -0.040332   0.003764   0.051477  -0.000012  -0.104720
     23      -0.000005  -0.046079   0.004300   0.061439  -0.000014  -0.127300
     24       0.034467  -0.000022   0.000002   0.000009   0.077292  -0.000018
     25      -0.000022  -0.163209   0.018447   0.082383  -0.000018  -0.083148
     26       0.000002   0.018447   0.032746  -0.007688   0.000002   0.014972
     27      -0.000033  -0.289707   0.027035   0.321087  -0.000060  -0.526063
     28       0.149153  -0.000064   0.000006   0.000033   0.270839  -0.000054
     29      -0.000064  -0.413558   0.052512   0.288681  -0.000054  -0.202130
     30       0.000006   0.052512   0.144253  -0.026939   0.000005   0.044137
     31      -0.000033  -0.288681   0.026939   0.563836  -0.000068  -0.600979
     32       0.270839  -0.000054   0.000005   0.000068   0.563836  -0.000073
     33      -0.000054  -0.202130   0.044137   0.600979  -0.000073  -0.076733
     34       0.000005   0.044137   0.266720  -0.056083   0.000007   0.059777
     35      -0.000011  -0.096472   0.009003   0.594108  -0.000033  -0.292907
     36       0.165012  -0.000012   0.000001   0.000061   0.501009  -0.000030
     37      -0.000012   0.061581   0.009652   0.534013  -0.000030   0.237729
     38       0.000001   0.009652   0.164111  -0.049833   0.000003   0.024569
     39       0.000060   0.145960  -0.013621  -0.055338   0.000034  -0.007231
     40       0.220362  -0.000082   0.000010   0.000022   0.178295  -0.000017
     41      -0.020564   0.000010   0.000024  -0.000002  -0.016638   0.000003
     42      -0.000053  -0.244641   0.063957   0.094193  -0.000019   0.015386
     43       0.000010   0.066985   0.212192  -0.017734   0.000003   0.014034
     44      -0.000000  -0.000232  -0.000095   0.007584  -0.000000  -0.023745
     45      -0.000000  -0.000161  -0.000066   0.008719  -0.000000  -0.027861
     46       0.000221  -0.000000  -0.000000   0.000000   0.012340  -0.000001
     47      -0.000000  -0.002774  -0.001226   0.020284  -0.000001  -0.048550
     48      -0.000000  -0.001226  -0.000281   0.008304  -0.000000  -0.024927
     49      -0.000000  -0.015904  -0.006511   0.068564  -0.000003  -0.173240
     50       0.005309  -0.000001  -0.000000   0.000002   0.057834  -0.000004
     51      -0.000001  -0.042330  -0.019502   0.095067  -0.000004  -0.182371
     52      -0.000000  -0.019502  -0.002675   0.038918  -0.000002  -0.098335
     53      -0.000002  -0.095067  -0.038918   0.206505  -0.000006  -0.339449
     54       0.057834  -0.000004  -0.000002   0.000006   0.206505  -0.000010
     55      -0.000004  -0.182371  -0.098335   0.339449  -0.000010  -0.351477
     56      -0.000002  -0.098335   0.017578   0.138963  -0.000004  -0.228425
     57      -0.000001  -0.085480  -0.034994   0.373328  -0.000005  -0.283853
     58       0.094807  -0.000002  -0.000001   0.000009   0.314826  -0.000007
     59      -0.000002  -0.046529  -0.057860   0.517506  -0.000007  -0.078651
     60      -0.000001  -0.057860   0.071120   0.211856  -0.000003  -0.161081
     61       0.000001   0.022346   0.009148  -0.029853   0.000002   0.048518
     62       0.007881  -0.000001  -0.000001   0.000002   0.053883  -0.000003
     63       0.003226  -0.000001  -0.000000   0.000001   0.022058  -0.000002
     64      -0.000001  -0.025331  -0.016822   0.036864  -0.000002  -0.044443
     65      -0.000001  -0.029441  -0.005492   0.036259  -0.000002  -0.074654
     66      -0.000001  -0.007174   0.004391   0.048472  -0.000020  -0.117400
     67      -0.000011  -0.066211   0.040528   0.155327  -0.000049  -0.290875
     68      -0.000022  -0.132150   0.080890   0.344241  -0.000066  -0.385880
     69      -0.000000  -0.000002  -0.000001   0.001737  -0.000000  -0.007518
     70      -0.000000  -0.000812  -0.000204   0.011819  -0.000001  -0.039609
     71      -0.000001  -0.027029  -0.006803   0.073663  -0.000004  -0.147768
     72       0.000000  -0.000417  -0.000435   0.016553   0.000003  -0.039501
     73       0.000001  -0.013081  -0.013648   0.067665   0.000011  -0.124917
     74       0.000006  -0.064711  -0.067516   0.209335   0.000020  -0.231329
     75       0.000096   0.187808   0.319827   0.260542   0.000096   0.189236
     76       0.000125   0.245084   0.417365   0.569765   0.000163   0.319649
     77       0.000060   0.118275   0.201415   0.749439   0.000128   0.251677
     78      -0.000009   0.032714  -0.058655   0.050300  -0.000012   0.041894
     79      -0.000010   0.034499  -0.061857   0.053142  -0.000013   0.044764
     80       0.040895   0.000012  -0.000021   0.000006   0.051047   0.000005
     81       0.000012  -0.001797   0.076545  -0.021809   0.000005   0.033277
     82      -0.000021   0.076545  -0.096350   0.039102  -0.000009   0.031862
     83      -0.000050   0.178497  -0.320043   0.295954  -0.000061   0.217856
     84       0.167515   0.000037  -0.000067   0.000024   0.204452   0.000018
     85       0.000037   0.035125   0.237374  -0.087346   0.000018   0.140155
     86      -0.000067   0.237374  -0.258095   0.156611  -0.000032   0.115283
     87      -0.000058   0.206519  -0.370286   0.577662  -0.000088   0.314470
     88       0.364817   0.000043  -0.000077   0.000066   0.555514   0.000036
     89       0.000043   0.211868   0.274236  -0.237328   0.000036   0.426317
     90      -0.000077   0.274236  -0.126885   0.425526  -0.000065   0.231650
     91      -0.000027   0.095118  -0.170546   0.713666  -0.000063   0.223947
     92       0.292242   0.000015  -0.000026   0.000082   0.688055   0.000026
     93       0.000015   0.239536   0.094501  -0.293952   0.000026   0.595813
     94      -0.000026   0.094501   0.122802   0.527052  -0.000046   0.165388
     95       0.000050  -0.040060   0.071826  -0.018979   0.000016   0.006506
     96      -0.080775   0.000003   0.000036  -0.000004  -0.036513   0.000007
     97       0.144829   0.000036  -0.000042   0.000008   0.065467   0.000006
     98       0.000022  -0.159682  -0.003350  -0.017274   0.000004  -0.049778
     99       0.000036   0.017072   0.148292  -0.027969   0.000006   0.043989
                 12         13         14         15         16         17    
      0      -0.000000   0.065562   0.000000   0.000000   0.000000   0.000000
      1       0.000000   0.078316  -0.000000   0.000000  -0.000000   0.000000
      2       0.000000  -0.000000   0.057350   0.000000   0.000000   0.000000
      3       0.000000   0.000000   0.000000   0.057350   0.000000  -0.000000
      4       0.220230  -0.000000   0.000000   0.000000   0.057350   0.000000
      5      -0.000000   0.410096   0.000000   0.000000   0.000000   0.000000
      6       0.000000   0.000000   0.226365   0.000000   0.000000   0.000000
      7       0.000000   0.000000   0.000000   0.226365   0.000000   0.000000
      8       0.653461   0.000000   0.000000   0.000000   0.226365   0.000000
      9       0.000000   0.774408   0.000000   0.000000   0.000000   0.000000
     10       0.000000   0.000000   0.653055   0.000000   0.000000   0.000000
     11       0.000000   0.000000   0.000000   0.653055   0.000000   0.000000
     12       1.000000   0.000000   0.000000   0.000000   0.653055  -0.000000
     13       0.000000   1.000000   0.000000  -0.000000   0.000000   0.000000
     14       0.000000   0.000000   1.000000   0.000000   0.000000   0.000000
     15       0.000000  -0.000000   0.000000   1.000000   0.000000  -0.000000
     16       0.653055   0.000000   0.000000   0.000000   1.000000   0.000000
     17      -0.000000   0.000000   0.000000  -0.000000   0.000000   1.000000
     18       0.000000   0.000000   0.000000   0.000000   0.000000   0.000000
     19       0.000000   0.000000   0.000000   0.000000   0.000000   0.000000
     20      -0.000000   0.000000   0.000000   0.000000   0.000000   0.000000
     21       0.000000   0.000000   0.000000   0.000000   0.000000   0.000000
     22       0.009772   0.046675  -0.000006  -0.053787   0.005019  -0.023728
     23       0.011879   0.055642  -0.000007  -0.064501   0.006019  -0.027507
     24       0.000002   0.000003   0.041017  -0.000003   0.000000  -0.000025
     25       0.014972   0.023980  -0.000003   0.013757   0.002544  -0.098986
     26       0.075894  -0.002238   0.000000   0.002544   0.040779   0.009237
     27       0.049092   0.298945  -0.000036  -0.320510   0.029910  -0.124634
     28       0.000005   0.000011   0.165012  -0.000012   0.000001  -0.000060
     29       0.044137   0.096472  -0.000012   0.061581   0.009652  -0.145960
     30       0.266720  -0.009003   0.000001   0.009652   0.164111   0.013621
     31       0.056083   0.594108  -0.000061  -0.534013   0.049833  -0.055338
     32       0.000007   0.000033   0.501009  -0.000030   0.000003  -0.000034
     33       0.059777   0.292907  -0.000030   0.237729   0.024569   0.007231
     34       0.558257  -0.027334   0.000003   0.024569   0.498716  -0.000675
     35       0.027334   0.841653  -0.000056  -0.492060   0.045918  -0.006129
     36       0.000003   0.000056   0.841653  -0.000033   0.000003  -0.000005
     37       0.024569   0.492060  -0.000033   0.553977   0.026846   0.014088
     38       0.498716  -0.045918   0.000003   0.026846   0.839148  -0.001315
     39       0.000675  -0.006129   0.000005  -0.014088   0.001315   0.117530
     40       0.000003   0.000002   0.036002   0.000001   0.000000  -0.000094
     41       0.000020  -0.000000  -0.003360   0.000000   0.000004   0.000009
     42       0.031841   0.010432  -0.000001   0.024601   0.004424  -0.055182
     43       0.175433  -0.001964   0.000000  -0.001213   0.035802   0.010390
     44      -0.009720   0.025728  -0.000001  -0.045720  -0.018717  -0.000070
     45      -0.011406   0.030562  -0.000001  -0.054637  -0.022367  -0.000034
     46      -0.000000   0.000000   0.022792  -0.000001  -0.000000  -0.000000
     47      -0.024927   0.020550  -0.000001  -0.013233  -0.014748  -0.001176
     48       0.002135   0.008413  -0.000000  -0.014748   0.016754  -0.000481
     49      -0.070921   0.171757  -0.000005  -0.283991  -0.116260  -0.007956
     50      -0.000002   0.000001   0.094807  -0.000002  -0.000001  -0.000001
     51      -0.098335   0.085480  -0.000002  -0.046529  -0.057860  -0.022346
     52       0.017578   0.034994  -0.000001  -0.057860   0.071120  -0.009148
     53      -0.138963   0.373328  -0.000009  -0.517506  -0.211856  -0.029853
     54      -0.000004   0.000005   0.314826  -0.000007  -0.000003  -0.000002
     55      -0.228425   0.283853  -0.000007  -0.078651  -0.161081  -0.048518
     56       0.112992   0.116203  -0.000003  -0.161081   0.248883  -0.019862
     57      -0.116203   0.622147  -0.000010  -0.560941  -0.229637  -0.009591
     58      -0.000003   0.000010   0.622147  -0.000009  -0.000004  -0.000001
     59      -0.161081   0.560941  -0.000009   0.116391  -0.207045   0.002057
     60       0.248883   0.229637  -0.000004  -0.207045   0.537387   0.000842
     61       0.019862  -0.009591   0.000001  -0.002057  -0.000842   0.013386
     62      -0.000002   0.000000   0.031561  -0.000000  -0.000000  -0.000001
     63       0.000000   0.000000   0.012920  -0.000000   0.000000  -0.000000
     64      -0.062311   0.011843  -0.000000   0.011601  -0.021091  -0.015130
     65       0.014290   0.011649  -0.000000  -0.006712   0.023524  -0.014882
     66       0.071861   0.101357  -0.000025  -0.145445   0.089028  -0.003726
     67       0.178046   0.266178  -0.000059  -0.348693   0.213437  -0.033102
     68       0.236199   0.514540  -0.000091  -0.536105   0.328153  -0.031325
     69      -0.001892   0.034331  -0.000003  -0.088157  -0.022189  -0.000000
     70      -0.009970   0.099071  -0.000007  -0.232252  -0.058458  -0.000340
     71      -0.037193   0.234441  -0.000013  -0.437127  -0.110025  -0.008104
     72      -0.041213   0.071478   0.000009  -0.101114  -0.105497  -0.000190
     73      -0.130333   0.193509   0.000021  -0.249903  -0.260737  -0.008328
     74      -0.241357   0.399288   0.000035  -0.410125  -0.427905  -0.022316
     75       0.322258   0.175024   0.000038   0.075245   0.128137  -0.198780
     76       0.544345   0.438279   0.000088   0.172004   0.292914  -0.134224
     77       0.428592   0.765025   0.000122   0.238794   0.406654  -0.024937
     78      -0.075115   0.035311  -0.000005   0.016420  -0.029440  -0.044211
     79      -0.080261   0.037150  -0.000005   0.017336  -0.031084  -0.047547
     80      -0.000009   0.000001   0.020477   0.000001  -0.000001  -0.000034
     81       0.031862  -0.004798   0.000001   0.018261   0.003974   0.043927
     82      -0.006081   0.008604  -0.000001   0.003974   0.013352  -0.078760
     83      -0.390613   0.217913  -0.000027   0.097416  -0.174667  -0.184137
     84      -0.000032   0.000006   0.091423   0.000003  -0.000005  -0.000091
     85       0.115283  -0.021423   0.000003   0.081846   0.017172   0.078383
     86      -0.002250   0.038412  -0.000005   0.017172   0.060634  -0.140540
     87      -0.563842   0.487667  -0.000055   0.195118  -0.349844  -0.106377
     88      -0.000065   0.000023   0.344677   0.000009  -0.000016  -0.000074
     89       0.231650  -0.080769   0.000009   0.312361   0.057942  -0.003651
     90       0.140169   0.144818  -0.000016   0.057942   0.240788   0.006546
     91      -0.401535   0.792964  -0.000069   0.244763  -0.438857  -0.018990
     92      -0.000046   0.000049   0.752008   0.000015  -0.000027  -0.000019
     93       0.165388  -0.176219   0.000015   0.697614   0.097527  -0.016794
     94       0.391515   0.315960  -0.000027   0.097527   0.577143   0.030111
     95      -0.011665  -0.001440   0.000002   0.002264  -0.004059   0.100612
     96       0.000006  -0.000000  -0.005051   0.000001   0.000000   0.000047
     97      -0.000001   0.000001   0.009057   0.000000   0.000001  -0.000085
     98      -0.041682  -0.001311   0.000000  -0.005646  -0.007992   0.013272
     99       0.001996  -0.002122   0.000000   0.008095  -0.003326   0.021488
                 18         19         20         21         22         23    
      0       0.000000   0.000000   0.000000   0.000000   0.000037   0.000004
      1      -0.000000   0.000000   0.000000   0.000000   0.000004  -0.000001
      2       0.000000  -0.000000   0.000000   0.000000  -0.000000  -0.000000
      3       0.000000   0.000000   0.000000  -0.000000  -0.001184  -0.000428
      4       0.000000   0.000000   0.000000   0.000000   0.000110   0.000040
      5       0.000000   0.000000   0.000000   0.000000   0.012189   0.012997
      6       0.000000   0.000000   0.000000   0.000000  -0.000005  -0.000005
      7       0.000000   0.000000   0.000000   0.000000  -0.040332  -0.046079
      8       0.000000   0.000000   0.000000   0.000000   0.003764   0.004300
      9       0.000000   0.000000   0.000000   0.000000   0.051477   0.061439
     10       0.000000   0.000000   0.000000   0.000000  -0.000012  -0.000014
     11       0.000000   0.000000   0.000000   0.000000  -0.104720  -0.127300
     12       0.000000   0.000000  -0.000000   0.000000   0.009772   0.011879
     13       0.000000   0.000000   0.000000   0.000000   0.046675   0.055642
     14       0.000000   0.000000   0.000000   0.000000  -0.000006  -0.000007
     15       0.000000   0.000000   0.000000   0.000000  -0.053787  -0.064501
     16       0.000000   0.000000   0.000000   0.000000   0.005019   0.006019
     17       0.000000   0.000000   0.000000   0.000000  -0.023728  -0.027507
     18       1.000000   0.000000   0.000000   0.000000   0.000009   0.000011
     19       0.000000   1.000000   0.000000   0.000000  -0.000001  -0.000001
     20       0.000000   0.000000   1.000000   0.000000   0.040388   0.046820
     21       0.000000   0.000000   0.000000   1.000000  -0.007604  -0.008815
     22       0.000009  -0.000001   0.040388  -0.007604   1.000000   0.878444
     23       0.000011  -0.000001   0.046820  -0.008815   0.878444   1.000000
     24      -0.068532   0.006395   0.000027  -0.000005   0.000000  -0.000000
     25       0.000046  -0.000005   0.167305  -0.038007   0.000000  -0.000000
     26      -0.000005  -0.000007  -0.028403  -0.064389   0.000000   0.000000
     27       0.000049  -0.000005   0.212146  -0.039942   0.329179   0.418800
     28      -0.220362   0.020564   0.000053  -0.000010   0.000000   0.000000
     29       0.000082  -0.000010   0.244641  -0.066985   0.000000   0.000000
     30      -0.000010  -0.000024  -0.063957  -0.212192   0.000000  -0.000000
     31       0.000022  -0.000002   0.094193  -0.017734   0.153761   0.187145
     32      -0.178295   0.016638   0.000019  -0.000003   0.000000  -0.000000
     33       0.000017  -0.000003  -0.015386  -0.014034   0.000000   0.000000
     34      -0.000003  -0.000020  -0.031841  -0.175433  -0.000000   0.000000
     35       0.000002  -0.000000   0.010432  -0.001964   0.065562   0.078316
     36      -0.036002   0.003360   0.000001  -0.000000  -0.000000  -0.000000
     37      -0.000001  -0.000000  -0.024601   0.001213  -0.000000   0.000000
     38      -0.000000  -0.000004  -0.004424  -0.035802  -0.000000  -0.000000
     39      -0.000094   0.000009  -0.055182   0.010390   0.000000   0.000000
     40      -0.330660   0.038799   0.000067  -0.000017   0.000000   0.000000
     41       0.038799   0.081490  -0.000015  -0.000045  -0.000000   0.000000
     42       0.000067  -0.000015   0.164681  -0.093943   0.000000   0.000000
     43      -0.000017  -0.000045  -0.093943  -0.316593   0.000000   0.000000
     44       0.000000   0.000000   0.000087   0.000086   0.000147   0.000033
     45       0.000000   0.000000   0.000042   0.000042   0.000033  -0.000003
     46      -0.000239  -0.000098   0.000000   0.000000  -0.000000  -0.000000
     47       0.000000   0.000000   0.001383   0.001498   0.002245   0.001255
     48       0.000000   0.000000   0.000762   0.000414   0.003001   0.001677
     49       0.000000   0.000000   0.009825   0.009664   0.022458   0.024966
     50      -0.007881  -0.003226   0.000001   0.000001  -0.000006  -0.000008
     51       0.000001   0.000001   0.025331   0.029441   0.040539   0.047987
     52       0.000001   0.000000   0.016822   0.005492   0.054182   0.064137
     53       0.000002   0.000001   0.036864   0.036259   0.063226   0.075748
     54      -0.053883  -0.022058   0.000002   0.000002  -0.000011  -0.000014
     55       0.000003   0.000002   0.044443   0.074654   0.069754   0.085096
     56       0.000002  -0.000000   0.062311  -0.014290   0.093228   0.113733
     57       0.000000   0.000000   0.011843   0.011649   0.049753   0.059334
     58      -0.031561  -0.012920   0.000000   0.000000  -0.000005  -0.000006
     59       0.000000   0.000000  -0.011601   0.006712   0.031086   0.037293
     60       0.000000  -0.000000   0.021091  -0.023524   0.041548   0.049843
     61      -0.000001  -0.000000  -0.015130  -0.014882  -0.041707  -0.050908
     62      -0.012032  -0.005389   0.000001   0.000001  -0.000008  -0.000010
     63      -0.005389  -0.001073   0.000001   0.000000  -0.000011  -0.000014
     64       0.000001   0.000001   0.012258   0.026061  -0.020386  -0.024884
     65       0.000001   0.000000   0.026061   0.011396   0.069302   0.084591
     66       0.000002  -0.000001   0.002935  -0.005747   0.011866   0.010745
     67       0.000014  -0.000009   0.026081  -0.051059   0.074371   0.089124
     68       0.000013  -0.000008   0.024680  -0.048317   0.079314   0.095289
     69       0.000000   0.000000   0.000000   0.000000   0.000002   0.000000
     70       0.000000   0.000000   0.000519   0.000279   0.002285   0.002332
     71       0.000001   0.000000   0.012364   0.006645   0.024308   0.028743
     72      -0.000000  -0.000000  -0.000014   0.000328   0.000002   0.000000
     73      -0.000001  -0.000001  -0.000612   0.014412   0.002512   0.002577
     74      -0.000003  -0.000003  -0.001639   0.038617   0.025110   0.029704
     75       0.000090   0.000153  -0.167736   0.300675   0.000001   0.000000
     76       0.000061   0.000104  -0.113261   0.203027   0.001638   0.001641
     77       0.000011   0.000019  -0.021043   0.037720   0.021688   0.025604
     78      -0.000010   0.000018  -0.040239  -0.065151   0.000000   0.000000
     79      -0.000011   0.000020  -0.043276  -0.070068   0.000000   0.000000
     80       0.043758  -0.078458  -0.000018  -0.000029  -0.000000   0.000000
     81       0.000004  -0.000029   0.106733   0.023504  -0.000000   0.000000
     82      -0.000029   0.000039  -0.034455  -0.139058   0.000000  -0.000000
     83      -0.000042   0.000076  -0.167594  -0.271351   0.000001   0.000000
     84       0.142029  -0.254656  -0.000041  -0.000066  -0.000000  -0.000000
     85      -0.000003  -0.000066   0.288004  -0.018309  -0.000004  -0.000000
     86      -0.000066   0.000079  -0.007076  -0.281739   0.000002   0.000000
     87      -0.000024   0.000044  -0.096820  -0.156761   0.001816   0.001907
     88       0.154446  -0.276920  -0.000022  -0.000035  -0.000000  -0.000000
     89      -0.000024  -0.000035   0.232282  -0.150897  -0.006562  -0.007181
     90      -0.000035   0.000020   0.137361  -0.071512   0.003804   0.004163
     91      -0.000004   0.000008  -0.017284  -0.027984   0.019581   0.023136
     92       0.047952  -0.085977  -0.000003  -0.000004  -0.000000  -0.000000
     93      -0.000011  -0.000004   0.057865  -0.069928  -0.043317  -0.051770
     94      -0.000004  -0.000005   0.068204   0.019175   0.025108   0.030008
     95       0.000047  -0.000085   0.013272   0.021488  -0.000000   0.000000
     96      -0.004931   0.163094   0.000055   0.000003   0.000000  -0.000000
     97       0.163094  -0.206395  -0.000008  -0.000061  -0.000000   0.000000
     98       0.000055  -0.000008  -0.179411   0.190964   0.000000  -0.000000
     99       0.000003  -0.000061   0.190964   0.011831  -0.000001   0.000000
                 24         25         26         27         28         29    
      0       0.000000   0.001184  -0.000110   0.012189   0.000005   0.040332
      1       0.000000   0.000428  -0.000040   0.012997   0.000005   0.046079
      2       0.002170  -0.000003   0.000000  -0.000008   0.034467  -0.000022
      3      -0.000003  -0.022779   0.002328  -0.066948  -0.000022  -0.163209
      4       0.000000   0.002328   0.001953   0.006247   0.000002   0.018447
      5       0.000008   0.066948  -0.006247   0.149153   0.000033   0.289707
      6       0.034467  -0.000022   0.000002  -0.000033   0.149153  -0.000064
      7      -0.000022  -0.163209   0.018447  -0.289707  -0.000064  -0.413558
      8       0.000002   0.018447   0.032746   0.027035   0.000006   0.052512
      9       0.000009   0.082383  -0.007688   0.321087   0.000033   0.288681
     10       0.077292  -0.000018   0.000002  -0.000060   0.270839  -0.000054
     11      -0.000018  -0.083148   0.014972  -0.526063  -0.000054  -0.202130
     12       0.000002   0.014972   0.075894   0.049092   0.000005   0.044137
     13       0.000003   0.023980  -0.002238   0.298945   0.000011   0.096472
     14       0.041017  -0.000003   0.000000  -0.000036   0.165012  -0.000012
     15      -0.000003   0.013757   0.002544  -0.320510  -0.000012   0.061581
     16       0.000000   0.002544   0.040779   0.029910   0.000001   0.009652
     17      -0.000025  -0.098986   0.009237  -0.124634  -0.000060  -0.145960
     18      -0.068532   0.000046  -0.000005   0.000049  -0.220362   0.000082
     19       0.006395  -0.000005  -0.000007  -0.000005   0.020564  -0.000010
     20       0.000027   0.167305  -0.028403   0.212146   0.000053   0.244641
     21      -0.000005  -0.038007  -0.064389  -0.039942  -0.000010  -0.066985
     22       0.000000   0.000000   0.000000   0.329179   0.000000   0.000000
     23      -0.000000  -0.000000   0.000000   0.418800   0.000000   0.000000
     24       1.000000   0.000000  -0.000000  -0.000000   0.629120   0.000000
     25       0.000000   1.000000  -0.000000  -0.000000   0.000000   0.629120
     26      -0.000000  -0.000000   1.000000  -0.000000  -0.000000  -0.000000
     27      -0.000000  -0.000000  -0.000000   1.000000   0.000000  -0.000000
     28       0.629120   0.000000  -0.000000   0.000000   1.000000   0.000000
     29       0.000000   0.629120  -0.000000  -0.000000   0.000000   1.000000
     30      -0.000000  -0.000000   0.629120   0.000000   0.000000  -0.000000
     31       0.000000   0.000000  -0.000000   0.774697   0.000000   0.000000
     32       0.220230   0.000000  -0.000000   0.000000   0.653461   0.000000
     33       0.000000   0.220230   0.000000   0.000000   0.000000   0.653461
     34      -0.000000   0.000000   0.220230   0.000000   0.000000   0.000000
     35       0.000000   0.000000  -0.000000   0.410096   0.000000  -0.000000
     36       0.057350   0.000000   0.000000   0.000000   0.226365   0.000000
     37       0.000000   0.057350   0.000000  -0.000000   0.000000   0.226365
     38       0.000000   0.000000   0.057350   0.000000   0.000000  -0.000000
     39       0.000000  -0.000000   0.000000   0.000000   0.000000   0.000000
     40       0.000000   0.000000   0.000000   0.000000   0.000000   0.000000
     41       0.000000   0.000000   0.000000   0.000000   0.000000   0.000000
     42       0.000000   0.000000   0.000000   0.000000   0.000000   0.000000
     43       0.000000   0.000000   0.000000   0.000000   0.000000   0.000000
     44       0.000000  -0.002245  -0.003001   0.022458   0.000006  -0.040539
     45       0.000000  -0.001255  -0.001677   0.024966   0.000008  -0.047987
     46       0.006477   0.000004   0.000005  -0.000010   0.059387   0.000016
     47       0.000004  -0.015568  -0.029463   0.062542   0.000016  -0.040872
     48       0.000005  -0.029463  -0.032902   0.083590   0.000021  -0.134000
     49       0.000010  -0.062542  -0.083590   0.213287   0.000036  -0.224618
     50       0.059387   0.000016   0.000021  -0.000036   0.213287   0.000038
     51       0.000016  -0.040872  -0.134000   0.224618   0.000038  -0.023264
     52       0.000021  -0.134000  -0.119709   0.300209   0.000050  -0.316158
     53       0.000009  -0.054383  -0.072684   0.378899   0.000029  -0.184702
     54       0.094102   0.000009   0.000012  -0.000054   0.319603   0.000026
     55       0.000009   0.036676  -0.076752   0.336582   0.000026   0.155529
     56       0.000012  -0.076752  -0.008480   0.449853   0.000035  -0.219290
     57       0.000002  -0.013847  -0.018507   0.317247   0.000009  -0.055509
     58       0.043684   0.000001   0.000002  -0.000029   0.175114   0.000005
     59       0.000001   0.035149  -0.011407   0.184418   0.000005   0.142847
     60       0.000002  -0.011407   0.028438   0.246480   0.000007  -0.043127
     61      -0.000032   0.076767   0.102601  -0.151530  -0.000062   0.076803
     62       0.071826   0.000012   0.000031  -0.000030   0.178887   0.000007
     63       0.095998   0.000031   0.000030  -0.000040   0.239088   0.000048
     64      -0.000009   0.129620  -0.018756  -0.074068  -0.000014   0.266911
     65       0.000031  -0.100468  -0.190757   0.251790   0.000048  -0.060147
     66      -0.000015  -0.039455   0.099692   0.187937  -0.000054  -0.142412
     67      -0.000024  -0.064746   0.163596   0.426342  -0.000068  -0.180681
     68      -0.000009  -0.024522   0.061960   0.463304  -0.000032  -0.085472
     69       0.000000  -0.000078  -0.000041   0.003085   0.000000  -0.010847
     70       0.000000  -0.012429  -0.006493   0.042027   0.000003  -0.083772
     71       0.000001  -0.036658  -0.019151   0.168982   0.000005  -0.146627
     72       0.000000  -0.000019  -0.000106   0.003452   0.000002  -0.002409
     73       0.000002  -0.002693  -0.014911   0.044788   0.000015  -0.017719
     74       0.000007  -0.007508  -0.041574   0.173727   0.000026  -0.029919
     75       0.000000   0.000040   0.000016   0.002081   0.000002   0.007919
     76       0.000002   0.009897   0.003979   0.033609   0.000016   0.072583
     77       0.000008   0.035559   0.014295   0.153315   0.000032   0.144132
     78       0.000000   0.000000  -0.000000   0.000028   0.000000   0.000139
     79      -0.000000  -0.000000   0.000000   0.000021   0.000000   0.000110
     80       0.000000  -0.000000   0.000000  -0.000000   0.000075  -0.000000
     81      -0.000000  -0.000000   0.000000  -0.000203  -0.000000  -0.000874
     82       0.000000   0.000000  -0.000000   0.000118   0.000000   0.000550
     83       0.000000   0.000031  -0.000018   0.001472   0.000000   0.005223
     84       0.000008  -0.000000   0.000000  -0.000000   0.001403  -0.000000
     85      -0.000000  -0.000133   0.000082  -0.003816  -0.000000  -0.012136
     86       0.000000   0.000082  -0.000039   0.002212   0.000000   0.007848
     87       0.000000   0.008499  -0.004926   0.030330   0.000000   0.057084
     88       0.004296  -0.000000   0.000000  -0.000000   0.028853  -0.000000
     89      -0.000000  -0.024489   0.016685  -0.078506  -0.000000  -0.118899
     90       0.000000   0.016685  -0.005376   0.045506   0.000000   0.085644
     91       0.000000   0.027039  -0.015673   0.137853   0.000000   0.111608
     92       0.023770  -0.000000   0.000000  -0.000000   0.098116  -0.000000
     93      -0.000000  -0.034529   0.033793  -0.266960  -0.000000  -0.118020
     94       0.000000   0.033793   0.004182   0.154743   0.000000   0.125283
     95      -0.000000  -0.000023   0.000014  -0.001423  -0.000000  -0.004852
     96      -0.000003   0.000000  -0.000000   0.000000  -0.001356   0.000000
     97       0.000002  -0.000000   0.000000  -0.000000   0.000786  -0.000000
     98       0.000000   0.000019  -0.000014   0.001225   0.000000   0.003495
     99      -0.000000  -0.000036   0.000019  -0.002139  -0.000000  -0.007683
                 30         31         32         33         34         35    
      0      -0.003764   0.051477   0.000012   0.104720  -0.009772   0.046675
      1      -0.004300   0.061439   0.000014   0.127300  -0.011879   0.055642
      2       0.000002  -0.000009   0.077292  -0.000018   0.000002  -0.000003
      3       0.018447  -0.082383  -0.000018  -0.083148   0.014972  -0.023980
      4       0.032746   0.007688   0.000002   0.014972   0.075894   0.002238
      5      -0.027035   0.321087   0.000060   0.526063  -0.049092   0.298945
      6       0.000006  -0.000033   0.270839  -0.000054   0.000005  -0.000011
      7       0.052512  -0.288681  -0.000054  -0.202130   0.044137  -0.096472
      8       0.144253   0.026939   0.000005   0.044137   0.266720   0.009003
      9      -0.026939   0.563836   0.000068   0.600979  -0.056083   0.594108
     10       0.000005  -0.000068   0.563836  -0.000073   0.000007  -0.000033
     11       0.044137  -0.600979  -0.000073  -0.076733   0.059777  -0.292907
     12       0.266720   0.056083   0.000007   0.059777   0.558257   0.027334
     13      -0.009003   0.594108   0.000033   0.292907  -0.027334   0.841653
     14       0.000001  -0.000061   0.501009  -0.000030   0.000003  -0.000056
     15       0.009652  -0.534013  -0.000030   0.237729   0.024569  -0.492060
     16       0.164111   0.049833   0.000003   0.024569   0.498716   0.045918
     17       0.013621  -0.055338  -0.000034   0.007231  -0.000675  -0.006129
     18      -0.000010   0.000022  -0.178295   0.000017  -0.000003   0.000002
     19      -0.000024  -0.000002   0.016638  -0.000003  -0.000020  -0.000000
     20      -0.063957   0.094193   0.000019  -0.015386  -0.031841   0.010432
     21      -0.212192  -0.017734  -0.000003  -0.014034  -0.175433  -0.001964
     22       0.000000   0.153761   0.000000   0.000000  -0.000000   0.065562
     23      -0.000000   0.187145  -0.000000   0.000000   0.000000   0.078316
     24      -0.000000   0.000000   0.220230   0.000000  -0.000000   0.000000
     25      -0.000000   0.000000   0.000000   0.220230   0.000000   0.000000
     26       0.629120  -0.000000  -0.000000   0.000000   0.220230  -0.000000
     27       0.000000   0.774697   0.000000   0.000000   0.000000   0.410096
     28       0.000000   0.000000   0.653461   0.000000   0.000000   0.000000
     29      -0.000000   0.000000   0.000000   0.653461   0.000000  -0.000000
     30       1.000000   0.000000   0.000000   0.000000   0.653461   0.000000
     31       0.000000   1.000000   0.000000   0.000000   0.000000   0.774408
     32       0.000000   0.000000   1.000000   0.000000   0.000000   0.000000
     33       0.000000   0.000000   0.000000   1.000000   0.000000   0.000000
     34       0.653461   0.000000   0.000000   0.000000   1.000000   0.000000
     35       0.000000   0.774408   0.000000   0.000000   0.000000   1.000000
     36       0.000000   0.000000   0.653055   0.000000   0.000000   0.000000
     37      -0.000000   0.000000   0.000000   0.653055   0.000000   0.000000
     38       0.226365   0.000000   0.000000   0.000000   0.653055   0.000000
     39       0.000000   0.000000   0.000000   0.000000   0.000000   0.000000
     40       0.000000   0.000000  -0.000000   0.000000   0.000000   0.000000
     41       0.000000   0.000000   0.000000   0.000000   0.000000   0.000000
     42       0.000000   0.000000   0.000000  -0.000000   0.000000   0.000000
     43       0.000000   0.000000   0.000000   0.000000  -0.000000   0.000000
     44      -0.054182   0.063226   0.000011  -0.069754  -0.093228   0.049753
     45      -0.064137   0.075748   0.000014  -0.085096  -0.113733   0.059334
     46       0.000021  -0.000009   0.094102   0.000009   0.000012  -0.000002
     47      -0.134000   0.054383   0.000009   0.036676  -0.076752   0.013847
     48      -0.119709   0.072684   0.000012  -0.076752  -0.008480   0.018507
     49      -0.300209   0.378899   0.000054  -0.336582  -0.449853   0.317247
     50       0.000050  -0.000029   0.319603   0.000026   0.000035  -0.000009
     51      -0.316158   0.184702   0.000026   0.155529  -0.219290   0.055509
     52      -0.209269   0.246860   0.000035  -0.219290   0.026515   0.074189
     53      -0.246860   0.627954   0.000058  -0.362901  -0.485029   0.624455
     54       0.000035  -0.000058   0.627954   0.000033   0.000045  -0.000027
     55      -0.219290   0.362901   0.000033   0.418230  -0.280303   0.166925
     56       0.026515   0.485029   0.000045  -0.280303   0.253320   0.223100
     57      -0.074189   0.624455   0.000027  -0.166925  -0.223100   0.869372
     58       0.000007  -0.000049   0.526600   0.000013   0.000017  -0.000044
     59      -0.043127   0.304328   0.000013   0.445250  -0.108728   0.275578
     60       0.117474   0.406744   0.000017  -0.108728   0.381282   0.368319
     61       0.102650  -0.053517  -0.000029  -0.016286  -0.021767  -0.005288
     62       0.000048  -0.000011   0.115131  -0.000008   0.000013  -0.000001
     63       0.000035  -0.000014   0.153876   0.000013  -0.000001  -0.000001
     64      -0.121441  -0.026159  -0.000004   0.139661  -0.121091  -0.002585
     65      -0.221051   0.088927   0.000013   0.070487   0.003678   0.008786
     66       0.359839   0.266777  -0.000052  -0.137890   0.348413   0.176373
     67       0.456535   0.580268  -0.000087  -0.231664   0.585355   0.441361
     68       0.215966   0.757678  -0.000068  -0.181069   0.457515   0.769301
     69      -0.005667   0.056625   0.000005  -0.137535  -0.071852   0.106609
     70      -0.043765   0.175167   0.000012  -0.328926  -0.171839   0.278742
     71      -0.076602   0.369923   0.000015  -0.415803  -0.217226   0.533766
     72      -0.013339   0.059086   0.000025  -0.028484  -0.157721   0.108093
     73      -0.098111   0.181024   0.000059  -0.067465  -0.373568   0.282282
     74      -0.165665   0.377278   0.000073  -0.084166  -0.466043   0.539150
     75       0.003184   0.048765   0.000029   0.128314   0.051585   0.101556
     76       0.029180   0.156053   0.000071   0.317481   0.127633   0.266654
     77       0.057944   0.345203   0.000094   0.420388   0.169004   0.515273
     78      -0.000081   0.005843   0.000000   0.016999  -0.009853   0.018261
     79      -0.000064   0.006020   0.000000   0.017723  -0.010273   0.019167
     80       0.000000  -0.000000   0.006210  -0.000000   0.000000  -0.000000
     81       0.000550  -0.009273  -0.000000  -0.020192   0.015304  -0.008711
     82      -0.000244   0.005375   0.000000   0.015304  -0.002661   0.005049
     83      -0.003028   0.044126   0.000000   0.113520  -0.065801   0.115600
     84       0.000000  -0.000000   0.030483  -0.000000   0.000000  -0.000000
     85       0.007848  -0.045514  -0.000000  -0.086608   0.067872  -0.039719
     86      -0.003146   0.026382   0.000000   0.067872  -0.008859   0.023023
     87      -0.033088   0.141390   0.000000   0.269005  -0.155928   0.276508
     88       0.000000  -0.000000   0.135969  -0.000000   0.000000  -0.000000
     89       0.085644  -0.203015  -0.000000  -0.250282   0.223889  -0.160053
     90      -0.020790   0.117677   0.000000   0.223889   0.006192   0.092774
     91      -0.064693   0.317066   0.000000   0.347726  -0.201558   0.511860
     92       0.000000  -0.000000   0.305688  -0.000000   0.000000  -0.000000
     93       0.125283  -0.456422  -0.000000  -0.194868   0.290146  -0.397546
     94       0.025496   0.264564   0.000000   0.290146   0.137506   0.230436
     95       0.002813  -0.010091  -0.000000  -0.016965   0.009834  -0.002932
     96      -0.000000   0.000000  -0.017524   0.000000  -0.000000   0.000000
     97       0.000000  -0.000000   0.010158  -0.000000   0.000000  -0.000000
     98      -0.003598   0.008687   0.000000   0.005790  -0.023672   0.002524
     99       0.003553  -0.015167  -0.000000  -0.030546   0.006070  -0.004407
                 36         37         38         39         40         41    
      0       0.000006   0.053787  -0.005019  -0.023728   0.000009  -0.000001
      1       0.000007   0.064501  -0.006019  -0.027507   0.000011  -0.000001
      2       0.041017  -0.000003   0.000000   0.000025   0.068532  -0.006395
      3      -0.000003   0.013757   0.002544   0.098986  -0.000046   0.000005
      4       0.000000   0.002544   0.040779  -0.009237   0.000005   0.000007
      5       0.000036   0.320510  -0.029910  -0.124634   0.000049  -0.000005
      6       0.165012  -0.000012   0.000001   0.000060   0.220362  -0.020564
      7      -0.000012   0.061581   0.009652   0.145960  -0.000082   0.000010
      8       0.000001   0.009652   0.164111  -0.013621   0.000010   0.000024
      9       0.000061   0.534013  -0.049833  -0.055338   0.000022  -0.000002
     10       0.501009  -0.000030   0.000003   0.000034   0.178295  -0.016638
     11      -0.000030   0.237729   0.024569  -0.007231  -0.000017   0.000003
     12       0.000003   0.024569   0.498716   0.000675   0.000003   0.000020
     13       0.000056   0.492060  -0.045918  -0.006129   0.000002  -0.000000
     14       0.841653  -0.000033   0.000003   0.000005   0.036002  -0.003360
     15      -0.000033   0.553977   0.026846  -0.014088   0.000001   0.000000
     16       0.000003   0.026846   0.839148   0.001315   0.000000   0.000004
     17      -0.000005   0.014088  -0.001315   0.117530  -0.000094   0.000009
     18      -0.036002  -0.000001  -0.000000  -0.000094  -0.330660   0.038799
     19       0.003360  -0.000000  -0.000004   0.000009   0.038799   0.081490
     20       0.000001  -0.024601  -0.004424  -0.055182   0.000067  -0.000015
     21      -0.000000   0.001213  -0.035802   0.010390  -0.000017  -0.000045
     22      -0.000000  -0.000000  -0.000000   0.000000   0.000000  -0.000000
     23      -0.000000   0.000000  -0.000000   0.000000   0.000000   0.000000
     24       0.057350   0.000000   0.000000   0.000000   0.000000   0.000000
     25       0.000000   0.057350   0.000000  -0.000000   0.000000   0.000000
     26       0.000000   0.000000   0.057350   0.000000   0.000000   0.000000
     27       0.000000  -0.000000   0.000000   0.000000   0.000000   0.000000
     28       0.226365   0.000000   0.000000   0.000000   0.000000   0.000000
     29       0.000000   0.226365  -0.000000   0.000000   0.000000   0.000000
     30       0.000000  -0.000000   0.226365   0.000000   0.000000   0.000000
     31       0.000000   0.000000   0.000000   0.000000   0.000000   0.000000
     32       0.653055   0.000000   0.000000   0.000000  -0.000000   0.000000
     33       0.000000   0.653055   0.000000   0.000000   0.000000   0.000000
     34       0.000000   0.000000   0.653055   0.000000   0.000000   0.000000
     35       0.000000   0.000000   0.000000   0.000000   0.000000   0.000000
     36       1.000000   0.000000   0.000000   0.000000  -0.000000   0.000000
     37       0.000000   1.000000   0.000000   0.000000   0.000000   0.000000
     38       0.000000   0.000000   1.000000   0.000000   0.000000   0.000000
     39       0.000000   0.000000   0.000000   1.000000   0.000000   0.000000
     40      -0.000000   0.000000   0.000000   0.000000   1.000000   0.000000
     41       0.000000   0.000000   0.000000   0.000000   0.000000   1.000000
     42       0.000000  -0.000000   0.000000   0.000000   0.000000   0.000000
     43       0.000000   0.000000  -0.000000   0.000000   0.000000   0.000000
     44       0.000005  -0.031086  -0.041548  -0.041707  -0.000008  -0.000011
     45       0.000006  -0.037293  -0.049843  -0.050908  -0.000010  -0.000014
     46       0.043684   0.000001   0.000002   0.000032  -0.071826  -0.095998
     47       0.000001   0.035149  -0.011407  -0.076767  -0.000012  -0.000031
     48       0.000002  -0.011407   0.028438  -0.102601  -0.000031  -0.000030
     49       0.000029  -0.184418  -0.246480  -0.151530  -0.000030  -0.000040
     50       0.175114   0.000005   0.000007   0.000062  -0.178887  -0.239088
     51       0.000005   0.142847  -0.043127  -0.076803  -0.000007  -0.000048
     52       0.000007  -0.043127   0.117474  -0.102650  -0.000048  -0.000035
     53       0.000049  -0.304328  -0.406744  -0.053517  -0.000011  -0.000014
     54       0.526600   0.000013   0.000017   0.000029  -0.115131  -0.153876
     55       0.000013   0.445250  -0.108728   0.016286   0.000008  -0.000013
     56       0.000017  -0.108728   0.381282   0.021767  -0.000013   0.000001
     57       0.000044  -0.275578  -0.368319  -0.005288  -0.000001  -0.000001
     58       0.869372   0.000014   0.000019   0.000004  -0.020739  -0.027718
     59       0.000014   0.782018  -0.116752   0.008841   0.000003  -0.000001
     60       0.000019  -0.116752   0.713329   0.011816  -0.000001   0.000002
     61      -0.000004  -0.008841  -0.011816   0.135304   0.000054   0.000072
     62       0.020739  -0.000003   0.000001   0.000054  -0.058976  -0.259579
     63       0.027718   0.000001  -0.000002   0.000072  -0.259579  -0.211694
     64      -0.000000   0.022270  -0.025671   0.000030   0.000049  -0.000018
     65       0.000001   0.022512   0.013781  -0.000103  -0.000018  -0.000049
     66      -0.000020  -0.053959   0.136340  -0.205808   0.000036  -0.000092
     67      -0.000046  -0.123264   0.311456  -0.133807   0.000024  -0.000060
     68      -0.000064  -0.170882   0.431776  -0.024298   0.000004  -0.000011
     69       0.000005  -0.153401  -0.080141  -0.005655  -0.000001  -0.000000
     70       0.000013  -0.366152  -0.191287  -0.039811  -0.000004  -0.000002
     71       0.000020  -0.557659  -0.291335  -0.032408  -0.000003  -0.000002
     72       0.000027  -0.030870  -0.170931  -0.006334  -0.000001  -0.000003
     73       0.000064  -0.073594  -0.407502  -0.041835  -0.000004  -0.000022
     74       0.000097  -0.111796  -0.619036  -0.032681  -0.000003  -0.000017
     75       0.000035   0.158320   0.063648  -0.003787   0.000003   0.000001
     76       0.000085   0.379495   0.152564  -0.033343   0.000022   0.000009
     77       0.000130   0.583250   0.234477  -0.031369   0.000021   0.000008
     78       0.000000   0.029676  -0.017202  -0.000037   0.000000  -0.000000
     79       0.000000   0.031260  -0.018120  -0.000024   0.000000  -0.000000
     80       0.010637  -0.000000   0.000000   0.000000   0.000060  -0.000035
     81      -0.000000  -0.003425   0.008151   0.000333  -0.000000   0.000000
     82       0.000000   0.008151   0.005912  -0.000193   0.000000  -0.000000
     83       0.000000   0.180610  -0.104690  -0.002593   0.000000  -0.000000
     84       0.048499  -0.000000   0.000000   0.000000   0.001805  -0.001046
     85      -0.000000  -0.013557   0.035970   0.006850  -0.000000   0.000000
     86       0.000000   0.035970   0.027649  -0.003971   0.000000  -0.000000
     87       0.000000   0.386649  -0.224120  -0.026222   0.000000  -0.000000
     88       0.195433  -0.000000   0.000000   0.000000   0.034366  -0.019920
     89      -0.000000  -0.028374   0.129729   0.053832  -0.000000   0.000000
     90       0.000000   0.129729   0.120236  -0.031204   0.000000  -0.000000
     91       0.000001   0.552177  -0.320068  -0.023757   0.000000  -0.000000
     92       0.485423  -0.000000   0.000000   0.000000   0.054152  -0.031389
     93      -0.000000   0.056565   0.248586   0.016355  -0.000000   0.000000
     94       0.000000   0.248586   0.341330  -0.009480   0.000000   0.000000
     95      -0.000000   0.000715  -0.000414   0.002871  -0.000000   0.000000
     96      -0.009283   0.000000  -0.000000  -0.000000  -0.001705   0.001072
     97       0.005381  -0.000000  -0.000000   0.000000   0.001072  -0.000478
     98       0.000000  -0.005284  -0.007698  -0.002348   0.000000  -0.000000
     99      -0.000000  -0.001600  -0.005236   0.004100  -0.000000   0.000000
                 42         43         44         45         46         47    
      0       0.040388  -0.007604   0.000000  -0.000000   0.000000   0.000000
      1       0.046820  -0.008815  -0.000000   0.000000  -0.000000  -0.000000
      2      -0.000027   0.000005  -0.000000   0.000000   0.000000  -0.000000
      3      -0.167305   0.038007  -0.000000   0.000000  -0.000000  -0.000002
      4       0.028403   0.064389  -0.000000   0.000000  -0.000000  -0.000001
      5       0.212146  -0.039942   0.000047   0.000029   0.000000   0.000663
      6      -0.000053   0.000010  -0.000000  -0.000000   0.000221  -0.000000
      7      -0.244641   0.066985  -0.000232  -0.000161  -0.000000  -0.002774
      8       0.063957   0.212192  -0.000095  -0.000066  -0.000000  -0.001226
      9       0.094193  -0.017734   0.007584   0.008719   0.000000   0.020284
     10      -0.000019   0.000003  -0.000000  -0.000000   0.012340  -0.000001
     11       0.015386   0.014034  -0.023745  -0.027861  -0.000001  -0.048550
     12       0.031841   0.175433  -0.009720  -0.011406  -0.000000  -0.024927
     13       0.010432  -0.001964   0.025728   0.030562   0.000000   0.020550
     14      -0.000001   0.000000  -0.000001  -0.000001   0.022792  -0.000001
     15       0.024601  -0.001213  -0.045720  -0.054637  -0.000001  -0.013233
     16       0.004424   0.035802  -0.018717  -0.022367  -0.000000  -0.014748
     17      -0.055182   0.010390  -0.000070  -0.000034  -0.000000  -0.001176
     18       0.000067  -0.000017   0.000000   0.000000  -0.000239   0.000000
     19      -0.000015  -0.000045   0.000000   0.000000  -0.000098   0.000000
     20       0.164681  -0.093943   0.000087   0.000042   0.000000   0.001383
     21      -0.093943  -0.316593   0.000086   0.000042   0.000000   0.001498
     22       0.000000   0.000000   0.000147   0.000033  -0.000000   0.002245
     23       0.000000   0.000000   0.000033  -0.000003  -0.000000   0.001255
     24       0.000000   0.000000   0.000000   0.000000   0.006477   0.000004
     25       0.000000   0.000000  -0.002245  -0.001255   0.000004  -0.015568
     26       0.000000   0.000000  -0.003001  -0.001677   0.000005  -0.029463
     27       0.000000   0.000000   0.022458   0.024966  -0.000010   0.062542
     28       0.000000   0.000000   0.000006   0.000008   0.059387   0.000016
     29       0.000000   0.000000  -0.040539  -0.047987   0.000016  -0.040872
     30       0.000000   0.000000  -0.054182  -0.064137   0.000021  -0.134000
     31       0.000000   0.000000   0.063226   0.075748  -0.000009   0.054383
     32       0.000000   0.000000   0.000011   0.000014   0.094102   0.000009
     33      -0.000000   0.000000  -0.069754  -0.085096   0.000009   0.036676
     34       0.000000  -0.000000  -0.093228  -0.113733   0.000012  -0.076752
     35       0.000000   0.000000   0.049753   0.059334  -0.000002   0.013847
     36       0.000000   0.000000   0.000005   0.000006   0.043684   0.000001
     37      -0.000000   0.000000  -0.031086  -0.037293   0.000001   0.035149
     38       0.000000  -0.000000  -0.041548  -0.049843   0.000002  -0.011407
     39       0.000000   0.000000  -0.041707  -0.050908   0.000032  -0.076767
     40       0.000000   0.000000  -0.000008  -0.000010  -0.071826  -0.000012
     41       0.000000   0.000000  -0.000011  -0.000014  -0.095998  -0.000031
     42       1.000000   0.000000  -0.020386  -0.024884   0.000009  -0.129620
     43       0.000000   1.000000   0.069302   0.084591  -0.000031   0.100468
     44      -0.020386   0.069302   1.000000   0.878444   0.000000   0.000000
     45      -0.024884   0.084591   0.878444   1.000000   0.000000  -0.000000
     46       0.000009  -0.000031   0.000000   0.000000   1.000000  -0.000000
     47      -0.129620   0.100468   0.000000  -0.000000  -0.000000   1.000000
     48       0.018756   0.190757   0.000000  -0.000000  -0.000000   0.000000
     49      -0.074068   0.251790   0.329179   0.418800  -0.000000  -0.000000
     50       0.000014  -0.000048   0.000000  -0.000000   0.629120   0.000000
     51      -0.266911   0.060147  -0.000000   0.000000   0.000000   0.629120
     52       0.121441   0.221051  -0.000000   0.000000  -0.000000   0.000000
     53      -0.026159   0.088927   0.153761   0.187145  -0.000000   0.000000
     54       0.000004  -0.000013  -0.000000   0.000000   0.220230  -0.000000
     55      -0.139661  -0.070487   0.000000  -0.000000  -0.000000   0.220230
     56       0.121091  -0.003678   0.000000  -0.000000   0.000000   0.000000
     57      -0.002585   0.008786   0.065562   0.078316  -0.000000   0.000000
     58       0.000000  -0.000001   0.000000  -0.000000   0.057350  -0.000000
     59      -0.022270  -0.022512  -0.000000   0.000000  -0.000000   0.057350
     60       0.025671  -0.013781  -0.000000  -0.000000   0.000000  -0.000000
     61       0.000030  -0.000103   0.000000   0.000000  -0.000000  -0.000000
     62       0.000049  -0.000018   0.000000   0.000000   0.000000  -0.000000
     63      -0.000018  -0.000049   0.000000   0.000000  -0.000000   0.000000
     64      -0.362800  -0.146561   0.000000   0.000000   0.000000   0.000000
     65      -0.146561   0.092315   0.000000   0.000000   0.000000  -0.000000
     66      -0.259923  -0.243947   0.000002   0.000000  -0.000000   0.000017
     67      -0.168991  -0.158604   0.002325   0.002375  -0.000002   0.002689
     68      -0.030687  -0.028800   0.024455   0.028919  -0.000005   0.007848
     69       0.005594   0.008040   0.012053   0.010945  -0.000006  -0.108043
     70       0.039386   0.056600   0.074801   0.089658  -0.000010  -0.175894
     71       0.032062   0.046075   0.079468   0.095477  -0.000004  -0.066393
     72      -0.010277   0.003837   0.011986   0.010874   0.000020   0.042480
     73      -0.067883   0.025346   0.074649   0.089469   0.000032   0.069353
     74      -0.053029   0.019799   0.079414   0.095410   0.000012   0.026209
     75       0.004734   0.004540   0.000000   0.000000   0.000000   0.000000
     76       0.041681   0.039974   0.000002   0.000001   0.000000   0.000020
     77       0.039213   0.037607   0.001934   0.002204   0.000001   0.004748
     78       0.000032  -0.000055   0.000000   0.000000   0.000000   0.000000
     79       0.000021  -0.000036   0.000000   0.000000   0.000000   0.000000
     80      -0.000000   0.000000   0.000000   0.000000   0.000000   0.000000
     81      -0.000256   0.000518   0.000000   0.000000   0.000000   0.000000
     82       0.000219  -0.000260   0.000000   0.000000   0.000000   0.000000
     83       0.002232  -0.003897   0.000000  -0.000000  -0.000000   0.000000
     84      -0.000000   0.000000   0.000000  -0.000000   0.000000   0.000000
     85      -0.004989   0.010816  -0.000000   0.000000   0.000000  -0.000002
     86       0.004985  -0.005071   0.000000  -0.000000  -0.000000   0.000000
     87       0.022573  -0.039411   0.000220   0.000210  -0.000000   0.001625
     88      -0.000000   0.000000   0.000000   0.000000   0.000592   0.000000
     89      -0.029056   0.090809  -0.001098  -0.001098   0.000000  -0.007033
     90       0.056683  -0.029818   0.000049   0.000049  -0.000000   0.000343
     91       0.020451  -0.035706   0.009300   0.010894  -0.000001   0.018151
     92      -0.000000   0.000000   0.000001   0.000001   0.011504   0.000002
     93       0.013159   0.040182  -0.028529  -0.033812   0.000002  -0.042777
     94       0.055151   0.012666   0.001282   0.001520  -0.000000   0.002439
     95      -0.002348   0.004100  -0.000000   0.000000   0.000000  -0.000000
     96       0.000000  -0.000000  -0.000000   0.000000  -0.000000  -0.000000
     97      -0.000000   0.000000   0.000000  -0.000000   0.000000   0.000000
     98       0.000305  -0.004594   0.000000  -0.000000  -0.000000   0.000000
     99      -0.004594   0.005695  -0.000000   0.000000   0.000000  -0.000000
                 48         49         50         51         52         53    
      0       0.000000   0.000047   0.000000   0.000232   0.000095   0.007584
      1      -0.000000   0.000029   0.000000   0.000161   0.000066   0.008719
      2      -0.000000  -0.000000   0.000221  -0.000000  -0.000000  -0.000000
      3      -0.000001  -0.000663  -0.000000  -0.002774  -0.001226  -0.020284
      4      -0.000000  -0.000271  -0.000000  -0.001226  -0.000281  -0.008304
      5       0.000271   0.005309   0.000000   0.015904   0.006511   0.068564
      6      -0.000000  -0.000000   0.005309  -0.000001  -0.000000  -0.000002
      7      -0.001226  -0.015904  -0.000001  -0.042330  -0.019502  -0.095067
      8      -0.000281  -0.006511  -0.000000  -0.019502  -0.002675  -0.038918
      9       0.008304   0.068564   0.000002   0.095067   0.038918   0.206505
     10      -0.000000  -0.000003   0.057834  -0.000004  -0.000002  -0.000006
     11      -0.024927  -0.173240  -0.000004  -0.182371  -0.098335  -0.339449
[...]
  2C   1dxy      -0.588715 -0.515549 -0.718427 -0.000004  0.023236 -0.128156
  3H   1s         0.356038  0.120178 -0.131240 -0.000011  0.052930 -0.039657
  3H   2s        -0.216850 -0.221923  0.246977  0.000073 -0.077223  0.008711
  3H   3s        -0.323156 -0.234191  0.295719  0.000090  0.159151  0.064849
  4H   1s        -0.233878 -0.193468 -0.193036  0.000005  0.003470 -0.032819
  4H   2s         0.199921  0.159045  0.073639 -0.000012 -0.005652  0.008363
  4H   3s         0.226437  0.211631  0.079805 -0.000041 -0.026903  0.057171
  5H   1s        -0.230434 -0.178211 -0.235820 -0.000004  0.015660 -0.030855
  5H   2s         0.213880  0.064238  0.186430  0.000048  0.049871  0.002247
  5H   3s        -0.181358  0.026987  0.160419  0.000050  0.032015  0.127646
  6H   1s         0.063496  0.295140  0.186328  0.000007 -0.071479 -0.095950
  6H   2s        -0.138023 -0.189258 -0.231290 -0.000028 -0.020866  0.022696
  6H   3s         0.051448  0.096778 -0.245972 -0.000027 -0.302698  0.221786
  7O   1s         0.010841  0.001345 -0.018583  0.000001  0.000298 -0.019941
  7O   2s         0.025143  0.000037 -0.039272  0.000001  0.000586 -0.037554
  7O   1pz       -0.000010 -0.000034  0.000043  1.292251 -0.000211 -0.000180
  7O   1px       -0.036323  0.074411 -0.164350 -0.000095 -1.124078  0.639384
  7O   1py        0.005282 -0.207119  0.229467 -0.000262 -0.636339 -1.128023
  7O   3s        -0.277734  0.223283  0.185430 -0.000015 -0.010172  0.189525
  7O   2pz       -0.000012 -0.000008  0.000021 -1.537582  0.000262  0.000296
  7O   2px        0.098493  0.023709 -0.109205  0.000114  1.388862 -1.062337
  7O   2py       -0.106924 -0.027490  0.203521  0.000307  0.786784  1.868412
  7O   4s         0.817819 -2.288491  1.642517  0.000084  0.042022  1.299309
  7O   3pz        0.000022 -0.000180  0.000162  0.920630 -0.000167 -0.000052
  7O   3px       -0.563181  0.723664 -0.645969 -0.000088 -0.941645  0.206320
  7O   3py        0.267925 -1.389767  0.938166 -0.000166 -0.484858 -0.350302
  7O   5s         0.947154 -1.031521 -0.052352  0.000164 -0.161643 -1.391303
  7O   4pz        0.000048 -0.000106 -0.000028 -0.482541  0.000054 -0.000002
  7O   4px        0.043267  0.042427  0.200949  0.000007  0.581820  0.019829
  7O   4py        0.360319 -0.011355 -0.353946  0.000158  0.158363  0.041329
  7O   1dz2      -0.199438  0.533913 -0.213472 -0.000006 -0.007504 -0.232672
  7O   1dxz      -0.000043  0.000080 -0.000135  0.009913  0.000001 -0.000069
  7O   1dyz      -0.000048 -0.000212  0.000088 -0.023792  0.000016  0.000099
  7O   1dx2y2     0.412038  0.580497 -0.210304 -0.000002 -0.051526 -0.235838
  7O   1dxy      -0.488471  0.663370 -0.571563 -0.000002  0.018022 -0.390297
                     96        97        98        99   
                  24.79890  25.19558  25.56002  51.91845
                   0.00000   0.00000   0.00000   0.00000
                  --------  --------  --------  --------
  0C   1s        -0.460923 -1.982139 -0.066562  0.011854
  0C   2s         0.496246  2.167012  0.074204 -0.019224
  0C   1pz        0.000002 -0.000011  0.000002  0.000002
  0C   1px        0.052731 -0.015230  0.020694 -0.019971
  0C   1py       -0.022381 -0.034537 -0.004333  0.024163
  0C   3s        -0.135193 -0.652045 -0.054760  0.002960
  0C   2pz       -0.000000  0.000053  0.000001 -0.000006
  0C   2px       -0.194651  0.021115 -0.015193  0.066348
  0C   2py        0.115546  0.212879  0.017435 -0.069332
  0C   4s        -0.050943  0.432564  0.014089 -0.192222
  0C   3pz        0.000034 -0.000005  0.000004  0.000039
  0C   3px        0.143209 -0.056780  0.009599 -0.016637
  0C   3py        0.093484  0.031179  0.031200  0.250854
  0C   5s         1.258574  0.128845 -0.023180  0.163120
  0C   4pz       -0.000016  0.000004  0.000004 -0.000017
  0C   4px       -0.274925  0.016758  0.004989 -0.007823
  0C   4py       -0.025095  0.045220 -0.001876 -0.042129
  0C   1dz2       0.003588  0.098667 -0.015723 -0.013824
  0C   1dxz       0.000023  0.000003  0.000007 -0.000012
  0C   1dyz      -0.000018 -0.000022 -0.000009  0.000008
  0C   1dx2y2     0.111688 -0.013842  0.012021 -0.044294
  0C   1dxy       0.034963  0.122786 -0.007070 -0.048507
  1C   1s        -1.364463  0.367236 -1.466811  0.002166
  1C   2s         1.466573 -0.400390  1.623987 -0.003589
  1C   1pz        0.000000 -0.000006  0.000010 -0.000001
  1C   1px        0.033348 -0.063402 -0.054534 -0.012033
  1C   1py        0.016480 -0.008495 -0.079712 -0.001331
  1C   3s        -0.376128  0.082660 -0.584646 -0.009048
  1C   2pz       -0.000004  0.000014 -0.000055  0.000003
  1C   2px       -0.151763  0.195886  0.312063  0.057166
  1C   2py       -0.054073  0.046414  0.451338  0.009901
  1C   4s         0.512264 -0.062171  0.155408  0.160713
  1C   3pz        0.000013 -0.000009  0.000017  0.000004
  1C   3px        0.109031 -0.099231 -0.015070 -0.026604
  1C   3py       -0.093402 -0.069211 -0.127720 -0.222427
  1C   5s        -1.744370 -0.171513 -0.407428 -0.217353
  1C   4pz       -0.000078 -0.000007 -0.000014  0.000013
  1C   4px       -0.303414  0.003174  0.075944  0.004909
  1C   4py        0.279972 -0.040390  0.095086  0.030569
  1C   1dz2      -0.011984 -0.034028  0.131490 -0.005041
  1C   1dxz      -0.000015  0.000026  0.000030 -0.000001
  1C   1dyz      -0.000005  0.000010  0.000033 -0.000003
  1C   1dx2y2    -0.055176  0.105495  0.061118  0.020821
  1C   1dxy       0.061406 -0.031691 -0.244090 -0.019747
  2C   1s        -1.428625  0.287682  1.421676  0.003386
  2C   2s         1.534800 -0.314351 -1.573165 -0.005788
  2C   1pz        0.000001 -0.000001  0.000010  0.000002
  2C   1px       -0.004018 -0.002537 -0.058564  0.000075
  2C   1py       -0.004874 -0.001706 -0.079067 -0.000122
  2C   3s        -0.388896  0.115498  0.561019  0.014864
  2C   2pz        0.000003 -0.000002 -0.000054 -0.000007
  2C   2px       -0.021853  0.042947  0.332235  0.006627
  2C   2py       -0.027485  0.040177  0.446405  0.012400
  2C   4s         0.291536 -0.152020 -0.173036 -0.200782
  2C   3pz        0.000003  0.000006  0.000003  0.000017
  2C   3px       -0.054392 -0.017490 -0.082822 -0.067316
  2C   3py       -0.005162 -0.033131 -0.046121 -0.042738
  2C   5s         0.591370  0.144724  0.425135  0.121228
  2C   4pz       -0.000003 -0.000003 -0.000011 -0.000015
  2C   4px        0.074042  0.041709  0.072563  0.013858
  2C   4py        0.039959  0.050106  0.099388  0.033886
  2C   1dz2      -0.001283  0.000889 -0.127516 -0.003581
  2C   1dxz       0.000001 -0.000004 -0.000031 -0.000001
  2C   1dyz       0.000001  0.000006 -0.000034 -0.000001
  2C   1dx2y2    -0.001926  0.004053 -0.073908 -0.002796
  2C   1dxy       0.001139  0.026546  0.241859  0.006547
  3H   1s         0.007296  0.012466 -0.034153 -0.003866
  3H   2s         0.031766  0.003725  0.030376  0.047325
  3H   3s        -0.050385  0.043641  0.012035  0.058053
  4H   1s         0.009602  0.001166  0.029446  0.000340
  4H   2s         0.014029  0.008334 -0.014052  0.004093
  4H   3s        -0.151643 -0.002687 -0.002635 -0.012712
  5H   1s         0.007548  0.005986  0.027776 -0.002527
  5H   2s         0.031522  0.005746  0.006832  0.023167
  5H   3s        -0.105861  0.019503  0.022732  0.001445
  6H   1s         0.014244 -0.021922  0.001725  0.014925
  6H   2s        -0.012266  0.007057 -0.005173 -0.036208
  6H   3s        -0.118813 -0.085984 -0.012338 -0.060609
  7O   1s        -0.005954 -0.010165  0.000269 -2.247792
  7O   2s         0.000071  0.000728  0.000026  2.342738
  7O   1pz       -0.000003 -0.000009  0.000002  0.000003
  7O   1px        0.017932  0.027943  0.001621 -0.009343
  7O   1py       -0.023435 -0.057018 -0.001055  0.015476
  7O   3s         0.010187 -0.010594 -0.006383 -0.326875
  7O   2pz        0.000010  0.000027 -0.000004 -0.000011
  7O   2px       -0.062364 -0.085898 -0.004052  0.039394
  7O   2py        0.087193  0.175033  0.002780 -0.064588
  7O   4s         0.215614  0.354577  0.034338  0.418448
  7O   3pz        0.000013  0.000021  0.000002  0.000010
  7O   3px       -0.042465 -0.071045 -0.011893 -0.058750
  7O   3py        0.048885  0.122376  0.013010  0.065914
  7O   5s        -0.179320 -0.325835 -0.011222 -0.082358
  7O   4pz       -0.000023 -0.000019 -0.000001  0.000009
  7O   4px        0.001857  0.096392  0.009288 -0.008372
  7O   4py       -0.059405 -0.132073 -0.007969  0.015838
  7O   1dz2      -0.020746 -0.065066 -0.001068  0.007968
  7O   1dxz      -0.000009 -0.000012  0.000001  0.000002
  7O   1dyz       0.000007  0.000028 -0.000003 -0.000004
  7O   1dx2y2    -0.017241 -0.062196  0.000064  0.009262
  7O   1dxy      -0.045235 -0.085709 -0.006680  0.012096



                    ********************************
                    * MULLIKEN POPULATION ANALYSIS *
                    ********************************

--------------------------------------------
MULLIKEN ATOMIC CHARGES AND SPIN POPULATIONS
--------------------------------------------
   0 C :   -0.328906    0.465654
   1 C :    0.018380   -0.328056
   2 C :   -0.787347    0.840235
   3 H :    0.154740    0.015874
   4 H :    0.166342   -0.070361
   5 H :    0.224369   -0.068415
   6 H :    0.100723   -0.047963
   7 O :   -0.548300    0.193031
Sum of atomic charges         :   -1.0000000
Sum of atomic spin populations:    1.0000000

-----------------------------------------------------
MULLIKEN REDUCED ORBITAL CHARGES AND SPIN POPULATIONS
-----------------------------------------------------
CHARGE
  0 C s       :     3.362654  s :     3.362654
      pz      :     0.984779  p :     2.806329
      px      :     0.943587
      py      :     0.877963
      dz2     :     0.007465  d :     0.159923
      dxz     :     0.019302
      dyz     :     0.026267
      dx2y2   :     0.059043
      dxy     :     0.047846
  1 C s       :     2.764365  s :     2.764365
      pz      :     1.174744  p :     3.141529
      px      :     0.942248
      py      :     1.024537
      dz2     :     0.005777  d :     0.075727
      dxz     :     0.013798
      dyz     :     0.007113
      dx2y2   :     0.027030
      dxy     :     0.022008
  2 C s       :     3.384118  s :     3.384118
      pz      :     1.201912  p :     3.342951
      px      :     1.053419
      py      :     1.087620
      dz2     :     0.006595  d :     0.060279
      dxz     :     0.003665
      dyz     :     0.006910
      dx2y2   :     0.026958
      dxy     :     0.016150
  3 H s       :     0.845260  s :     0.845260
  4 H s       :     0.833658  s :     0.833658
  5 H s       :     0.775631  s :     0.775631
  6 H s       :     0.899277  s :     0.899277
  7 O s       :     3.889673  s :     3.889673
      pz      :     1.556654  p :     4.641871
      px      :     1.698792
      py      :     1.386425
      dz2     :     0.002095  d :     0.016756
      dxz     :     0.001114
      dyz     :     0.003742
      dx2y2   :     0.004173
      dxy     :     0.005632

SPIN
  0 C s       :     0.068335  s :     0.068335
      pz      :     0.363208  p :     0.393005
      px      :     0.012791
      py      :     0.017006
      dz2     :    -0.001505  d :     0.004315
      dxz     :     0.002740
      dyz     :     0.003644
      dx2y2   :    -0.000183
      dxy     :    -0.000381
  1 C s       :    -0.055705  s :    -0.055705
      pz      :    -0.165348  p :    -0.284945
      px      :    -0.068985
      py      :    -0.050613
      dz2     :     0.000623  d :     0.012594
      dxz     :     0.008232
      dyz     :     0.003190
      dx2y2   :     0.000684
      dxy     :    -0.000135
  2 C s       :     0.171601  s :     0.171601
      pz      :     0.601805  p :     0.674457
      px      :     0.041098
      py      :     0.031554
      dz2     :    -0.003130  d :    -0.005823
      dxz     :    -0.000607
      dyz     :    -0.001890
      dx2y2   :    -0.000015
      dxy     :    -0.000181
  3 H s       :     0.015874  s :     0.015874
  4 H s       :    -0.070361  s :    -0.070361
  5 H s       :    -0.068415  s :    -0.068415
  6 H s       :    -0.047963  s :    -0.047963
  7 O s       :     0.014154  s :     0.014154
      pz      :     0.185543  p :     0.179383
      px      :     0.000614
      py      :    -0.006774
      dz2     :     0.000047  d :    -0.000505
      dxz     :    -0.000109
      dyz     :    -0.000409
      dx2y2   :    -0.000023
      dxy     :    -0.000011


                     *******************************
                     * LOEWDIN POPULATION ANALYSIS *
                     *******************************

-------------------------------------------
LOEWDIN ATOMIC CHARGES AND SPIN POPULATIONS
-------------------------------------------
   0 C :   -0.211441    0.344983
   1 C :   -0.363573   -0.116461
   2 C :   -0.451422    0.615924
   3 H :    0.130444    0.007799
   4 H :    0.117641   -0.028766
   5 H :    0.155761   -0.027974
   6 H :    0.098100   -0.018191
   7 O :   -0.475510    0.222687

----------------------------------------------------
LOEWDIN REDUCED ORBITAL CHARGES AND SPIN POPULATIONS
----------------------------------------------------
CHARGE
  0 C s       :     2.839217  s :     2.839217
      pz      :     0.956277  p :     3.059356
      px      :     1.064184
      py      :     1.038896
      dz2     :     0.019107  d :     0.312868
      dxz     :     0.033449
      dyz     :     0.045459
      dx2y2   :     0.118302
      dxy     :     0.096550
  1 C s       :     2.866014  s :     2.866014
      pz      :     1.114720  p :     3.350910
      px      :     1.129525
      py      :     1.106665
      dz2     :     0.010740  d :     0.146649
      dxz     :     0.025636
      dyz     :     0.014183
      dx2y2   :     0.053450
      dxy     :     0.042639
  2 C s       :     2.905676  s :     2.905676
      pz      :     1.206645  p :     3.439301
      px      :     1.086706
      py      :     1.145950
      dz2     :     0.008898  d :     0.106445
      dxz     :     0.007049
      dyz     :     0.012933
      dx2y2   :     0.046649
      dxy     :     0.030917
  3 H s       :     0.869556  s :     0.869556
  4 H s       :     0.882359  s :     0.882359
  5 H s       :     0.844239  s :     0.844239
  6 H s       :     0.901900  s :     0.901900
  7 O s       :     3.522345  s :     3.522345
      pz      :     1.577769  p :     4.928036
      px      :     1.748422
      py      :     1.601845
      dz2     :     0.003608  d :     0.025129
      dxz     :     0.001362
      dyz     :     0.004518
      dx2y2   :     0.006270
      dxy     :     0.009371

SPIN
  0 C s       :     0.013333  s :     0.013333
      pz      :     0.306051  p :     0.318658
      px      :     0.008012
      py      :     0.004595
      dz2     :    -0.001101  d :     0.012992
      dxz     :     0.003270
      dyz     :     0.012401
      dx2y2   :    -0.001202
      dxy     :    -0.000375
  1 C s       :    -0.014200  s :    -0.014200
      pz      :    -0.106245  p :    -0.133622
      px      :    -0.018697
      py      :    -0.008680
      dz2     :     0.000946  d :     0.031361
      dxz     :     0.016359
      dyz     :     0.010041
      dx2y2   :     0.002491
      dxy     :     0.001524
  2 C s       :     0.032499  s :     0.032499
      pz      :     0.550179  p :     0.592812
      px      :     0.021347
      py      :     0.021286
      dz2     :    -0.003087  d :    -0.009387
      dxz     :    -0.000437
      dyz     :    -0.002333
      dx2y2   :    -0.001716
      dxy     :    -0.001815
  3 H s       :     0.007799  s :     0.007799
  4 H s       :    -0.028766  s :    -0.028766
  5 H s       :    -0.027974  s :    -0.027974
  6 H s       :    -0.018191  s :    -0.018191
  7 O s       :     0.007513  s :     0.007513
      pz      :     0.209935  p :     0.214116
      px      :     0.003696
      py      :     0.000484
      dz2     :     0.000187  d :     0.001058
      dxz     :     0.000194
      dyz     :     0.000584
      dx2y2   :     0.000034
      dxy     :     0.000059


                      *****************************
                      * MAYER POPULATION ANALYSIS *
                      *****************************

  NA   - Mulliken gross atomic population
  ZA   - Total nuclear charge
  QA   - Mulliken gross atomic charge
  VA   - Mayer's total valence
  BVA  - Mayer's bonded valence
  FA   - Mayer's free valence

  ATOM       NA         ZA         QA         VA         BVA        FA
  0 C      6.3289     6.0000    -0.3289     4.2379     4.0843     0.1536
  1 C      5.9816     6.0000     0.0184     3.0969     3.0532     0.0437
  2 C      6.7873     6.0000    -0.7873     4.0004     3.5875     0.4129
  3 H      0.8453     1.0000     0.1547     0.9381     0.9378     0.0003
  4 H      0.8337     1.0000     0.1663     0.9224     0.9174     0.0049
  5 H      0.7756     1.0000     0.2244     0.9162     0.9116     0.0046
  6 H      0.8993     1.0000     0.1007     0.9244     0.9221     0.0023
  7 O      8.5483     8.0000    -0.5483     1.4538     1.4009     0.0529

  Mayer bond orders larger than 0.1
B(  0-C ,  1-C ) :   1.2700 B(  0-C ,  2-C ) :   0.1956 B(  0-C ,  6-H ) :   0.9956 
B(  0-C ,  7-O ) :   1.5334 B(  1-C ,  2-C ) :   1.3299 B(  1-C ,  3-H ) :   0.8526 
B(  1-C ,  7-O ) :  -0.2254 B(  2-C ,  4-H ) :   0.9536 B(  2-C ,  5-H ) :   0.9246 
B(  2-C ,  7-O ) :   0.1051 

-------
TIMINGS
-------

Total SCF time: 0 days 0 hours 0 min 18 sec 

Total time                  ....      18.291 sec
Sum of individual times     ....      18.642 sec  (101.9%)

Fock matrix formation       ....      18.182 sec  ( 99.4%)
Diagonalization             ....       0.068 sec  (  0.4%)
Density matrix formation    ....       0.003 sec  (  0.0%)
Population analysis         ....       0.006 sec  (  0.0%)
Initial guess               ....       0.272 sec  (  1.5%)
Orbital Transformation      ....       0.000 sec  (  0.0%)
Orbital Orthonormalization  ....       0.000 sec  (  0.0%)
DIIS solution               ....       0.014 sec  (  0.1%)

-------------------------   --------------------
FINAL SINGLE POINT ENERGY      -190.776849176263
-------------------------   --------------------


                            ***************************************
                            *     ORCA property calculations      *
                            ***************************************

                                    ---------------------
                                    Active property flags
                                    ---------------------
   (+) Dipole Moment


------------------------------------------------------------------------------
                       ORCA ELECTRIC PROPERTIES CALCULATION
------------------------------------------------------------------------------

Dipole Moment Calculation                       ... on
Quadrupole Moment Calculation                   ... off
Polarizability Calculation                      ... off
GBWName                                         ... acrolein_orca_an.gbw
Electron density file                           ... acrolein_orca_an.scfp.tmp

-------------
DIPOLE MOMENT
-------------
                                X             Y             Z
Electronic contribution:      2.61643      -0.57817      -0.00021
Nuclear contribution   :     -3.27926       1.18505       0.00036
                        -----------------------------------------
Total Dipole Moment    :     -0.66283       0.60688       0.00016
                        -----------------------------------------
Magnitude (a.u.)       :      0.89869
Magnitude (Debye)      :      2.28430


Timings for individual modules:

Sum of individual times         ...       18.705 sec (=   0.312 min)
GTO integral calculation        ...        0.127 sec (=   0.002 min)   0.7 %
SCF iterations                  ...       18.578 sec (=   0.310 min)  99.3 %
                             ****ORCA TERMINATED NORMALLY****
TOTAL RUN TIME: 0 days 0 hours 0 minutes 18 seconds 773 msec
