 *******************************************************************************
 ** Site#: 29116        For non-commercial use only    Version 18.025L 64BITS **
 *******************************************************************************
 ** Cite this program as: MOPAC2016, Version: 18.025L, James J. P. Stewart,   **
 ** Stewart Computational Chemistry, web: HTTP://OpenMOPAC.net. Days left:  15**
 *******************************************************************************
 **                                                                           **
 **                                MOPAC2016                                  **
 **                                                                           **
 *******************************************************************************

                              PM7 CALCULATION RESULTS


 *******************************************************************************
 *  CALCULATION DONE:                                Thu Jan 10 12:23:03 2019  *
 *  PM7        - The PM7 Hamiltonian to be used
 *  SINGLET    - SPIN STATE DEFINED AS A SINGLET
 *
 *
 *
 *                 CHARGE ON SYSTEM = 0
 *
 *
 *
 *  1SCF       - DO 1 SCF AND THEN STOP 
 *  T=         - A TIME OF 172800.0 SECONDS REQUESTED
 *  DUMP=N     - RESTART FILE WRITTEN EVERY  7200.000 SECONDS
 *  AUX        - OUTPUT AUXILIARY INFORMATION
 *  LARGE      - EXPANDED OUTPUT TO BE PRINTED
 *  GRAPH      - GENERATE FILE FOR GRAPHICS
 *  ALLVEC     - PRINT ALL EIGENVECTORS
 *******************************************************************************
PM7 1SCF CHARGE=0 Singlet allvecs large AUX GRAPHF


   ATOM   CHEMICAL          X               Y               Z
  NUMBER   SYMBOL      (ANGSTROMS)     (ANGSTROMS)     (ANGSTROMS)
 
     1       C         -0.73900000  *   1.18900000  *  -0.00733400  *
     2       C          0.61400000  *   1.20800000  *   0.35166600  *
     3       C          1.35300000  *   0.01900000  *   0.35866600  *
     4       C          0.73900000  *  -1.18900000  *   0.00666600  *
     5       C         -0.61400000  *  -1.20800000  *  -0.35133400  *
     6       C         -1.35300000  *  -0.01900000  *  -0.35833400  *
     7       H         -1.30900000  *   2.10600000  *  -0.01233400  *
     8       H          1.08800000  *   2.14000000  *   0.62266600  *
     9       H          2.39700000  *   0.03400000  *   0.63466600  *
    10       H          1.30900000  *  -2.10600000  *   0.01266600  *
    11       H         -1.08800000  *  -2.14000000  *  -0.62233400  *
    12       H         -2.39700000  *  -0.03400000  *  -0.63533400  *
 


          CARTESIAN COORDINATES 

    NO.       ATOM           X           Y           Z

     1         C         -0.7390      1.1890     -0.0073
     2         C          0.6140      1.2080      0.3517
     3         C          1.3530      0.0190      0.3587
     4         C          0.7390     -1.1890      0.0067
     5         C         -0.6140     -1.2080     -0.3513
     6         C         -1.3530     -0.0190     -0.3583
     7         H         -1.3090      2.1060     -0.0123
     8         H          1.0880      2.1400      0.6227
     9         H          2.3970      0.0340      0.6347
    10         H          1.3090     -2.1060      0.0127
    11         H         -1.0880     -2.1400     -0.6223
    12         H         -2.3970     -0.0340     -0.6353

 General Reference for PM7:
 "Optimization of Parameters for Semiempirical Methods VI: More Modifications to the 
 NDDO Approximations and Re-optimization of Parameters", J. J. P. Stewart, J. Mol. Mod., 1:32, 19 (2013)
 http://www.springerlink.com/openurl.asp?genre=article&id=doi:10.1007/s00894-012-1667-x

           Empirical Formula: C6 H6  =    12 atoms



      MOLECULAR POINT GROUP   :   D6h 


 SINGLET STATE CALCULATION


      RHF CALCULATION, NO. OF DOUBLY OCCUPIED LEVELS = 15


 -------------------------------------------------------------------------------
 PM7 1SCF CHARGE=0 Singlet allvecs large AUX GRAPHF




     1SCF WAS SPECIFIED, SO BFGS WAS NOT USED                 
     SCF FIELD WAS ACHIEVED                                   


                              PM7 CALCULATION
                                                       MOPAC2016 (Version: 18.025L)
                                                       Thu Jan 10 12:23:03 2019
                                                       No. of days remaining =  15




          FINAL HEAT OF FORMATION =         23.20334 KCAL/MOL =      97.08279 KJ/MOL


          TOTAL ENERGY            =       -817.55112 EV
          ELECTRONIC ENERGY       =      -3247.32675 EV  POINT GROUP:     D6h 
          CORE-CORE REPULSION     =       2429.77563 EV
          COSMO AREA              =        118.62 SQUARE ANGSTROMS
          COSMO VOLUME            =        107.09 CUBIC ANGSTROMS

          IONIZATION POTENTIAL    =          9.805007 EV
          HOMO LUMO ENERGIES (EV) =         -9.805  0.204
          NO. OF FILLED LEVELS    =         15
          MOLECULAR WEIGHT        =         78.1134

          MOLECULAR DIMENSIONS (Angstroms)

            Atom       Atom       Distance
            H    11    H     8     4.96018
            H    12    H    10     4.29506
            H     7    H     9     0.00096


          SCF CALCULATIONS        =          1
 
          WALL-CLOCK TIME         =          0.184 SECONDS
          COMPUTATION TIME        =          0.060 SECONDS




   ATOM   CHEMICAL          X               Y               Z
  NUMBER   SYMBOL      (ANGSTROMS)     (ANGSTROMS)     (ANGSTROMS)
 
     1       C         -0.73900000  *   1.18900000  *  -0.00733400  *
     2       C          0.61400000  *   1.20800000  *   0.35166600  *
     3       C          1.35300000  *   0.01900000  *   0.35866600  *
     4       C          0.73900000  *  -1.18900000  *   0.00666600  *
     5       C         -0.61400000  *  -1.20800000  *  -0.35133400  *
     6       C         -1.35300000  *  -0.01900000  *  -0.35833400  *
     7       H         -1.30900000  *   2.10600000  *  -0.01233400  *
     8       H          1.08800000  *   2.14000000  *   0.62266600  *
     9       H          2.39700000  *   0.03400000  *   0.63466600  *
    10       H          1.30900000  *  -2.10600000  *   0.01266600  *
    11       H         -1.08800000  *  -2.14000000  *  -0.62233400  *
    12       H         -2.39700000  *  -0.03400000  *  -0.63533400  *

                             CARTESIAN COORDINATES

   1    C       -0.739000000     1.189000000    -0.007334000
   2    C        0.614000000     1.208000000     0.351666000
   3    C        1.353000000     0.019000000     0.358666000
   4    C        0.739000000    -1.189000000     0.006666000
   5    C       -0.614000000    -1.208000000    -0.351334000
   6    C       -1.353000000    -0.019000000    -0.358334000
   7    H       -1.309000000     2.106000000    -0.012334000
   8    H        1.088000000     2.140000000     0.622666000
   9    H        2.397000000     0.034000000     0.634666000
  10    H        1.309000000    -2.106000000     0.012666000
  11    H       -1.088000000    -2.140000000    -0.622334000
  12    H       -2.397000000    -0.034000000    -0.635334000


           Empirical Formula: C6 H6  =    12 atoms



      MOLECULAR POINT GROUP   :   D6h 


                EIGENVECTORS  


   Root No.       1         2         3         4         5         6         7         8

                 1 a1g     1 e1u     1 e1u     1 e2g     1 e2g     2 a1g     1 b2u     1 b1u 

               -30.325   -25.817   -25.815   -20.936   -20.934   -18.082   -15.493   -15.203
  
  S   C    1    0.3687    0.4649   -0.1153    0.3474   -0.0670    0.0531   -0.2071   -0.0001
  Px  C    1    0.0721    0.0439    0.1825   -0.0216    0.2947   -0.1747    0.1202   -0.3311
  Py  C    1   -0.1161    0.0301    0.1131    0.1555    0.1513    0.2809   -0.1930   -0.2070
  Pz  C    1    0.0008    0.0164    0.0657    0.0189    0.1012   -0.0017    0.0012   -0.1196
  S   C    2    0.3686    0.3322    0.3450   -0.1156    0.3346    0.0532    0.2074    0.0001
  Px  C    2   -0.0600   -0.1430    0.1393   -0.3075   -0.0387    0.1452    0.0992    0.3523
  Py  C    2   -0.1179    0.0818   -0.0760    0.1193    0.1744    0.2852    0.1960   -0.1967
  Pz  C    2   -0.0344   -0.0248    0.0246   -0.0620    0.0173    0.0830    0.0570    0.0617
  S   C    3    0.3686   -0.1325    0.4603   -0.2318   -0.2674    0.0532   -0.2073   -0.0002
  Px  C    3   -0.1321   -0.0121   -0.0010   -0.0786   -0.1184    0.3197   -0.2193   -0.0210
  Py  C    3   -0.0019    0.2197    0.0634   -0.2638    0.2262    0.0046   -0.0033    0.4035
  Pz  C    3   -0.0351    0.0314    0.0096   -0.0622    0.0046    0.0847   -0.0580    0.0582
  S   C    4    0.3688   -0.4649    0.1153    0.3474   -0.0671    0.0531    0.2071    0.0001
  Px  C    4   -0.0722    0.0440    0.1825    0.0216   -0.2947    0.1746    0.1205   -0.3311
  Py  C    4    0.1160    0.0303    0.1131   -0.1555   -0.1512   -0.2809   -0.1930   -0.2068
  Pz  C    4   -0.0006    0.0162    0.0658   -0.0187   -0.1012    0.0017    0.0013   -0.1196
  S   C    5    0.3688   -0.3323   -0.3449   -0.1157    0.3344    0.0532   -0.2074   -0.0002
  Px  C    5    0.0600   -0.1431    0.1392    0.3076    0.0386   -0.1452    0.0991    0.3523
  Py  C    5    0.1180    0.0819   -0.0759   -0.1193   -0.1744   -0.2853    0.1960   -0.1967
  Pz  C    5    0.0343   -0.0247    0.0246    0.0620   -0.0173   -0.0830    0.0568    0.0615
  S   C    6    0.3687    0.1327   -0.4601   -0.2319   -0.2674    0.0533    0.2074    0.0002
  Px  C    6    0.1322   -0.0121   -0.0010    0.0786    0.1183   -0.3197   -0.2193   -0.0210
  Py  C    6    0.0019    0.2198    0.0633    0.2639   -0.2262   -0.0046   -0.0033    0.4036
  Pz  C    6    0.0350    0.0314    0.0097    0.0622   -0.0044   -0.0847   -0.0582    0.0579
  S   H    7    0.1098    0.2180   -0.0540    0.2469   -0.0476    0.2334   -0.2687   -0.0004
  S   H    8    0.1096    0.1557    0.1617   -0.0821    0.2376    0.2333    0.2686    0.0003
  S   H    9    0.1097   -0.0621    0.2158   -0.1647   -0.1899    0.2334   -0.2685   -0.0000
  S   H   10    0.1098   -0.2180    0.0541    0.2469   -0.0478    0.2333    0.2688    0.0002
  S   H   11    0.1097   -0.1557   -0.1617   -0.0821    0.2375    0.2334   -0.2684   -0.0003
  S   H   12    0.1097    0.0621   -0.2157   -0.1647   -0.1898    0.2334    0.2685    0.0000


   Root No.       9        10        11        12        13        14        15        16

                 2 e1u     2 e1u     1 a2u     2 e2g     2 e2g     1 e1g     1 e1g     1 e2u 

               -14.281   -14.279   -13.369   -11.976   -11.976    -9.806    -9.805     0.204
  
  S   C    1   -0.0738    0.0213   -0.0001    0.0055    0.0108    0.0002    0.0001    0.0001
  Px  C    1   -0.2685   -0.0364   -0.1029    0.1794   -0.2944    0.1341    0.0555    0.0713
  Py  C    1    0.3644   -0.1759   -0.0613    0.2954    0.1730    0.0803    0.0332    0.0427
  Pz  C    1   -0.0133   -0.0374    0.3903    0.0937   -0.0506   -0.5101   -0.2109   -0.2709
  S   C    2   -0.0550   -0.0532    0.0000   -0.0122   -0.0006   -0.0001    0.0000   -0.0001
  Px  C    2    0.2293    0.0589   -0.1023   -0.1642    0.3056    0.1151   -0.0886    0.0740
  Py  C    2    0.2467    0.3284   -0.0613   -0.2850   -0.1889    0.0688   -0.0529    0.0443
  Pz  C    2    0.0990    0.0670    0.3904   -0.0879    0.0503   -0.4376    0.3365   -0.2812
  S   C    3    0.0184   -0.0744    0.0001    0.0065   -0.0102    0.0000    0.0002    0.0002
  Px  C    3   -0.1027    0.4425   -0.1026    0.1623   -0.2867   -0.0190   -0.1437   -0.1449
  Py  C    3   -0.1309   -0.0262   -0.0614    0.3042    0.1902   -0.0114   -0.0864   -0.0870
  Pz  C    3   -0.0477    0.1119    0.3902    0.0906   -0.0456    0.0723    0.5473    0.5521
  S   C    4    0.0738   -0.0213   -0.0001    0.0056    0.0108   -0.0002   -0.0001    0.0001
  Px  C    4   -0.2686   -0.0365   -0.1024   -0.1793    0.2944   -0.1341   -0.0554    0.0711
  Py  C    4    0.3644   -0.1757   -0.0615   -0.2956   -0.1729   -0.0803   -0.0331    0.0426
  Pz  C    4   -0.0133   -0.0375    0.3904   -0.0937    0.0498    0.5102    0.2108   -0.2709
  S   C    5    0.0550    0.0532    0.0001   -0.0122   -0.0005    0.0000    0.0000   -0.0000
  Px  C    5    0.2295    0.0590   -0.1026    0.1642   -0.3053   -0.1148    0.0882    0.0737
  Py  C    5    0.2468    0.3282   -0.0611    0.2850    0.1891   -0.0688    0.0529    0.0442
  Pz  C    5    0.0989    0.0670    0.3905    0.0879   -0.0508    0.4378   -0.3363   -0.2810
  S   C    6   -0.0183    0.0743    0.0001    0.0066   -0.0103   -0.0000   -0.0001    0.0001
  Px  C    6   -0.1029    0.4424   -0.1022   -0.1622    0.2871    0.0190    0.1438   -0.1451
  Py  C    6   -0.1310   -0.0261   -0.0616   -0.3041   -0.1901    0.0114    0.0860   -0.0868
  Pz  C    6   -0.0478    0.1120    0.3905   -0.0904    0.0451   -0.0726   -0.5472    0.5520
  S   H    7    0.2857   -0.0823    0.0003    0.1339    0.2603   -0.0000   -0.0000   -0.0001
  S   H    8    0.2144    0.2065    0.0001   -0.2925   -0.0140    0.0000    0.0000    0.0000
  S   H    9   -0.0718    0.2889   -0.0001    0.1584   -0.2462    0.0000    0.0000   -0.0001
  S   H   10   -0.2857    0.0821    0.0002    0.1341    0.2602    0.0000   -0.0000   -0.0001
  S   H   11   -0.2145   -0.2064   -0.0001   -0.2925   -0.0141   -0.0001    0.0000    0.0000
  S   H   12    0.0720   -0.2888   -0.0003    0.1584   -0.2464    0.0001    0.0000   -0.0001


   Root No.      17        18        19        20        21        22        23        24

                 1 e2u     1 b1g     3 e1u     3 e1u     1 a2g     3 e2g     3 e2g     3 a1g 

                 0.204     2.538     4.412     4.412     5.020     5.284     5.285     5.582
  
  S   C    1   -0.0002   -0.0001   -0.1090    0.0220   -0.0000   -0.1493    0.3306   -0.1662
  Px  C    1   -0.1264   -0.1025   -0.0614    0.3847    0.3310    0.1199    0.2598    0.1031
  Py  C    1   -0.0757   -0.0615    0.2580    0.1803    0.2067    0.2471   -0.2196   -0.1662
  Pz  C    1    0.4810    0.3904    0.0245    0.1294    0.1195    0.0703    0.0339    0.0008
  S   C    2   -0.0001   -0.0001   -0.0731   -0.0835   -0.0000   -0.2119   -0.2949   -0.1675
  Px  C    2    0.1249    0.1026   -0.2174    0.3411    0.3520   -0.0957    0.2605   -0.0866
  Py  C    2    0.0747    0.0614    0.3092    0.0229   -0.1969    0.2835    0.1737   -0.1701
  Pz  C    2   -0.4751   -0.3903   -0.0086    0.0934    0.0616    0.0195    0.0959   -0.0495
  S   C    3    0.0001    0.0001    0.0353   -0.1055    0.0002    0.3613   -0.0360   -0.1667
  Px  C    3    0.0015   -0.1024   -0.1013    0.2276    0.0211   -0.3430    0.0198   -0.1901
  Py  C    3    0.0008   -0.0615    0.4205    0.1460   -0.4035    0.0215    0.2622   -0.0028
  Pz  C    3   -0.0058    0.3903    0.0397    0.0827   -0.0581   -0.0868    0.0465   -0.0502
  S   C    4   -0.0002    0.0001    0.1091   -0.0215   -0.0003   -0.1495    0.3305   -0.1668
  Px  C    4   -0.1264    0.1026   -0.0608    0.3842   -0.3310   -0.1197   -0.2603   -0.1035
  Py  C    4   -0.0757    0.0614    0.2585    0.1808   -0.2066   -0.2469    0.2193    0.1660
  Pz  C    4    0.4810   -0.3903    0.0247    0.1295   -0.1195   -0.0704   -0.0337   -0.0012
  S   C    5   -0.0000    0.0000    0.0734    0.0830    0.0005   -0.2114   -0.2946   -0.1670
  Px  C    5    0.1247   -0.1025   -0.2171    0.3407   -0.3522    0.0956   -0.2611    0.0861
  Py  C    5    0.0747   -0.0614    0.3094    0.0229    0.1974   -0.2828   -0.1738    0.1702
  Pz  C    5   -0.4752    0.3905   -0.0083    0.0929   -0.0613   -0.0193   -0.0959    0.0494
  S   C    6    0.0000   -0.0001   -0.0357    0.1051   -0.0002    0.3608   -0.0363   -0.1678
  Px  C    6    0.0016    0.1026   -0.1017    0.2275   -0.0214    0.3430   -0.0205    0.1901
  Py  C    6    0.0010    0.0614    0.4201    0.1456    0.4040   -0.0209   -0.2622    0.0027
  Pz  C    6   -0.0060   -0.3904    0.0393    0.0827    0.0578    0.0867   -0.0466    0.0505
  S   H    7    0.0001    0.0001   -0.2249    0.0452   -0.0003   -0.0280    0.0619    0.3151
  S   H    8    0.0000    0.0000   -0.1517   -0.1724    0.0000   -0.0397   -0.0547    0.3175
  S   H    9   -0.0000   -0.0001    0.0736   -0.2173   -0.0002    0.0674   -0.0062    0.3165
  S   H   10    0.0001   -0.0001    0.2249   -0.0449    0.0002   -0.0277    0.0621    0.3156
  S   H   11   -0.0000    0.0000    0.1517    0.1726   -0.0000   -0.0395   -0.0553    0.3170
  S   H   12   -0.0000    0.0001   -0.0737    0.2176   -0.0001    0.0677   -0.0067    0.3173


   Root No.      25        26        27        28        29        30

                 2 b2u     4 e2g     4 e2g     4 e1u     4 e1u     3 b2u 

                 5.824     6.156     6.158     6.220     6.222     6.405
  
  S   C    1    0.3385    0.0197   -0.2751    0.0307   -0.2930   -0.0930
  Px  C    1    0.0239    0.0605    0.1446   -0.2072    0.0929   -0.1778
  Py  C    1   -0.0391    0.0587   -0.2213   -0.1037   -0.1949    0.2862
  Pz  C    1    0.0003    0.0251    0.0030   -0.0708   -0.0065   -0.0017
  S   C    2   -0.3389   -0.2493    0.1210    0.2661   -0.1184    0.0943
  Px  C    2    0.0194   -0.1352   -0.0137    0.0009   -0.2313   -0.1469
  Py  C    2    0.0397   -0.1878    0.1366    0.2178    0.0299   -0.2899
  Pz  C    2    0.0114   -0.0650    0.0179    0.0345   -0.0560   -0.0842
  S   C    3    0.3391    0.2278    0.1523    0.2388    0.1725   -0.0937
  Px  C    3   -0.0437    0.2083    0.1444    0.1779    0.1155    0.3250
  Py  C    3    0.0003    0.0498   -0.0676   -0.1387    0.1960    0.0039
  Pz  C    3   -0.0116    0.0624    0.0272    0.0247    0.0611    0.0860
  S   C    4   -0.3379    0.0171   -0.2771   -0.0313    0.2917    0.0928
  Px  C    4    0.0251   -0.0581   -0.1437   -0.2088    0.0916   -0.1783
  Py  C    4   -0.0393   -0.0565    0.2226   -0.1031   -0.1943    0.2861
  Pz  C    4    0.0002   -0.0241   -0.0029   -0.0711   -0.0063   -0.0018
  S   C    5    0.3398   -0.2463    0.1222   -0.2686    0.1172   -0.0949
  Px  C    5    0.0195    0.1375    0.0153    0.0024   -0.2302   -0.1467
  Py  C    5    0.0395    0.1855   -0.1376    0.2193    0.0306   -0.2898
  Pz  C    5    0.0113    0.0653   -0.0176    0.0351   -0.0557   -0.0841
  S   C    6   -0.3395    0.2316    0.1540   -0.2352   -0.1697    0.0947
  Px  C    6   -0.0441   -0.2123   -0.1464    0.1742    0.1127    0.3244
  Py  C    6   -0.0000   -0.0496    0.0673   -0.1392    0.1961    0.0039
  Pz  C    6   -0.0115   -0.0637   -0.0279    0.0240    0.0605    0.0858
  S   H    7   -0.2226   -0.0293    0.4230   -0.0386    0.3752   -0.2130
  S   H    8    0.2229    0.3816   -0.1861   -0.3423    0.1540    0.2111
  S   H    9   -0.2235   -0.3496   -0.2336   -0.3072   -0.2238   -0.2120
  S   H   10    0.2214   -0.0270    0.4249    0.0403   -0.3732    0.2133
  S   H   11   -0.2237    0.3788   -0.1869    0.3459   -0.1521   -0.2105
  S   H   12    0.2233   -0.3556   -0.2363    0.3012    0.2194    0.2106


              NET ATOMIC CHARGES AND DIPOLE CONTRIBUTIONS

  ATOM NO.   TYPE          CHARGE      No. of ELECS.   s-Pop       p-Pop       
    1          C          -0.146986        4.1470     1.08470     3.06228
    2          C          -0.147029        4.1470     1.08482     3.06221
    3          C          -0.147009        4.1470     1.08480     3.06221
    4          C          -0.146987        4.1470     1.08470     3.06228
    5          C          -0.147042        4.1470     1.08475     3.06229
    6          C          -0.147008        4.1470     1.08478     3.06223
    7          H           0.146983        0.8530     0.85302
    8          H           0.147032        0.8530     0.85297
    9          H           0.146997        0.8530     0.85300
   10          H           0.146984        0.8530     0.85302
   11          H           0.147035        0.8530     0.85296
   12          H           0.147030        0.8530     0.85297
 DIPOLE           X         Y         Z       TOTAL
 POINT-CHG.    -0.000     0.000    -0.000     0.000
 HYBRID         0.000     0.000     0.000     0.000
 SUM           -0.000     0.000    -0.000     0.000


          ATOMIC ORBITAL ELECTRON POPULATIONS

     Atom    s        px        py        pz   
    1  C   1.08470   1.01255   1.05080   0.99893
    2  C   1.08482   1.00499   1.05282   1.00440
    3  C   1.08480   1.06996   0.98761   1.00464
    4  C   1.08470   1.01258   1.05080   0.99891
    5  C   1.08475   1.00498   1.05285   1.00446
    6  C   1.08478   1.06998   0.98759   1.00465
    7  H   0.85302
    8  H   0.85297
    9  H   0.85300
   10  H   0.85302
   11  H   0.85296
   12  H   0.85297

           DATA FOR GRAPH WRITTEN TO DISK

 **********************
 *                    *
 * JOB ENDED NORMALLY *
 *                    *
 **********************



 TOTAL JOB TIME:             0.31 SECONDS

 == MOPAC DONE ==
