 *******************************************************************************
 ** Site#: 29116        For non-commercial use only    Version 18.025L 64BITS **
 *******************************************************************************
 ** Cite this program as: MOPAC2016, Version: 18.025L, James J. P. Stewart,   **
 ** Stewart Computational Chemistry, web: HTTP://OpenMOPAC.net. Days left:  15**
 *******************************************************************************
 **                                                                           **
 **                                MOPAC2016                                  **
 **                                                                           **
 *******************************************************************************

                              PM7 CALCULATION RESULTS


 *******************************************************************************
 *  CALCULATION DONE:                                Thu Jan 10 12:44:32 2019  *
 *  PM7        - The PM7 Hamiltonian to be used
 *  DOUBLET    - SPIN STATE DEFINED AS A DOUBLET
 *
 *
 *
 *                 CHARGE ON SYSTEM =    -1
 *
 *
 *
 *  1SCF       - DO 1 SCF AND THEN STOP 
 *  T=         - A TIME OF 172800.0 SECONDS REQUESTED
 *  DUMP=N     - RESTART FILE WRITTEN EVERY  7200.000 SECONDS
 *  AUX        - OUTPUT AUXILIARY INFORMATION
 *  LARGE      - EXPANDED OUTPUT TO BE PRINTED
 *  GRAPH      - GENERATE FILE FOR GRAPHICS
 *  ALLVEC     - PRINT ALL EIGENVECTORS
 *******************************************************************************
PM7 1SCF CHARGE=-1 Doublet allvecs large AUX GRAPHF


   ATOM   CHEMICAL          X               Y               Z
  NUMBER   SYMBOL      (ANGSTROMS)     (ANGSTROMS)     (ANGSTROMS)
 
     1       C         -0.73900000  *   1.18900000  *  -0.00733400  *
     2       C          0.61400000  *   1.20800000  *   0.35166600  *
     3       C          1.35300000  *   0.01900000  *   0.35866600  *
     4       C          0.73900000  *  -1.18900000  *   0.00666600  *
     5       C         -0.61400000  *  -1.20800000  *  -0.35133400  *
     6       C         -1.35300000  *  -0.01900000  *  -0.35833400  *
     7       H         -1.30900000  *   2.10600000  *  -0.01233400  *
     8       H          1.08800000  *   2.14000000  *   0.62266600  *
     9       H          2.39700000  *   0.03400000  *   0.63466600  *
    10       H          1.30900000  *  -2.10600000  *   0.01266600  *
    11       H         -1.08800000  *  -2.14000000  *  -0.62233400  *
    12       H         -2.39700000  *  -0.03400000  *  -0.63533400  *
 


          CARTESIAN COORDINATES 

    NO.       ATOM           X           Y           Z

     1         C         -0.7390      1.1890     -0.0073
     2         C          0.6140      1.2080      0.3517
     3         C          1.3530      0.0190      0.3587
     4         C          0.7390     -1.1890      0.0067
     5         C         -0.6140     -1.2080     -0.3513
     6         C         -1.3530     -0.0190     -0.3583
     7         H         -1.3090      2.1060     -0.0123
     8         H          1.0880      2.1400      0.6227
     9         H          2.3970      0.0340      0.6347
    10         H          1.3090     -2.1060      0.0127
    11         H         -1.0880     -2.1400     -0.6223
    12         H         -2.3970     -0.0340     -0.6353

 General Reference for PM7:
 "Optimization of Parameters for Semiempirical Methods VI: More Modifications to the 
 NDDO Approximations and Re-optimization of Parameters", J. J. P. Stewart, J. Mol. Mod., 1:32, 19 (2013)
 http://www.springerlink.com/openurl.asp?genre=article&id=doi:10.1007/s00894-012-1667-x

           Empirical Formula: C6 H6  =    12 atoms



      MOLECULAR POINT GROUP   :   D6h 


 DOUBLET STATE CALCULATION


          UHF CALCULATION, NO. OF ALPHA ELECTRONS =   16
                           NO. OF BETA  ELECTRONS =   15

 -------------------------------------------------------------------------------
 PM7 1SCF CHARGE=-1 Doublet allvecs large AUX GRAPHF




     1SCF WAS SPECIFIED, SO BFGS WAS NOT USED                 
     SCF FIELD WAS ACHIEVED                                   


                              PM7 CALCULATION
                                                       MOPAC2016 (Version: 18.025L)
                                                       Thu Jan 10 12:44:32 2019
                                                       No. of days remaining =  15




          FINAL HEAT OF FORMATION =         19.67747 KCAL/MOL =      82.33055 KJ/MOL


          TOTAL ENERGY            =       -817.70401 EV
          ELECTRONIC ENERGY       =      -3247.47964 EV  POINT GROUP:     D6h 
          CORE-CORE REPULSION     =       2429.77563 EV
          COSMO AREA              =        118.62 SQUARE ANGSTROMS
          COSMO VOLUME            =        107.09 CUBIC ANGSTROMS

          IONIZATION POTENTIAL    =          0.516440 EV
          ALPHA SOMO LUMO (EV)    =         -0.516  6.354
          BETA  SOMO LUMO (EV)    =         -3.148  6.112
          NO. OF ALPHA ELECTRONS  =         16
          NO. OF BETA  ELECTRONS  =         15
          MOLECULAR WEIGHT        =         78.1134

          MOLECULAR DIMENSIONS (Angstroms)

            Atom       Atom       Distance
            H    11    H     8     4.96018
            H    12    H    10     4.29506
            H     7    H     9     0.00096


          SCF CALCULATIONS        =          1
 
          WALL-CLOCK TIME         =          0.059 SECONDS
          COMPUTATION TIME        =          0.068 SECONDS




   ATOM   CHEMICAL          X               Y               Z
  NUMBER   SYMBOL      (ANGSTROMS)     (ANGSTROMS)     (ANGSTROMS)
 
     1       C         -0.73900000  *   1.18900000  *  -0.00733400  *
     2       C          0.61400000  *   1.20800000  *   0.35166600  *
     3       C          1.35300000  *   0.01900000  *   0.35866600  *
     4       C          0.73900000  *  -1.18900000  *   0.00666600  *
     5       C         -0.61400000  *  -1.20800000  *  -0.35133400  *
     6       C         -1.35300000  *  -0.01900000  *  -0.35833400  *
     7       H         -1.30900000  *   2.10600000  *  -0.01233400  *
     8       H          1.08800000  *   2.14000000  *   0.62266600  *
     9       H          2.39700000  *   0.03400000  *   0.63466600  *
    10       H          1.30900000  *  -2.10600000  *   0.01266600  *
    11       H         -1.08800000  *  -2.14000000  *  -0.62233400  *
    12       H         -2.39700000  *  -0.03400000  *  -0.63533400  *

                             CARTESIAN COORDINATES

   1    C       -0.739000000     1.189000000    -0.007334000
   2    C        0.614000000     1.208000000     0.351666000
   3    C        1.353000000     0.019000000     0.358666000
   4    C        0.739000000    -1.189000000     0.006666000
   5    C       -0.614000000    -1.208000000    -0.351334000
   6    C       -1.353000000    -0.019000000    -0.358334000
   7    H       -1.309000000     2.106000000    -0.012334000
   8    H        1.088000000     2.140000000     0.622666000
   9    H        2.397000000     0.034000000     0.634666000
  10    H        1.309000000    -2.106000000     0.012666000
  11    H       -1.088000000    -2.140000000    -0.622334000
  12    H       -2.397000000    -0.034000000    -0.635334000


           Empirical Formula: C6 H6  =    12 atoms



      MOLECULAR POINT GROUP   :   D6h 


          ALPHA EIGENVECTORS  


   Root No.       1         2         3         4         5         6         7         8

                 1 a1g     2 ????    3 ????    4 ????    5 ????    2 a1g     1 b2u     1 b1u 

               -23.794   -19.873   -19.292   -15.009   -14.893   -12.302    -9.855    -9.077
  
  S   C    1    0.3835    0.4757   -0.0515    0.3342   -0.0300   -0.0235   -0.1806   -0.0016
  Px  C    1    0.0683    0.0097    0.1914   -0.1206   -0.2681    0.1759    0.1330   -0.3396
  Py  C    1   -0.1052    0.0310    0.1156    0.1353   -0.1922   -0.2737   -0.2209   -0.2003
  Pz  C    1    0.0015    0.0075    0.0685   -0.0103   -0.1007    0.0032    0.0002   -0.1208
  S   C    2    0.3631    0.2721    0.3829   -0.2135   -0.2787   -0.0461    0.2051   -0.0024
  Px  C    2   -0.0677   -0.1579    0.1190   -0.2663    0.1182   -0.1649    0.0736    0.3655
  Py  C    2   -0.1075    0.0954   -0.0496    0.0688   -0.2106   -0.2741    0.1909   -0.1666
  Pz  C    2   -0.0348   -0.0265    0.0234   -0.0591   -0.0021   -0.0865    0.0494    0.0700
  S   C    3    0.3575   -0.1856    0.4287   -0.1547    0.3194   -0.0522   -0.2113   -0.0018
  Px  C    3   -0.1277   -0.0140    0.0097   -0.0281    0.1353   -0.3198   -0.1932    0.0016
  Py  C    3   -0.0108    0.2046    0.0874   -0.3026   -0.1417   -0.0223    0.0136    0.3982
  Pz  C    3   -0.0353    0.0286    0.0162   -0.0550    0.0132   -0.0875   -0.0485    0.0633
  S   C    4    0.3836   -0.4756    0.0517    0.3342   -0.0299   -0.0234    0.1806    0.0016
  Px  C    4   -0.0685    0.0099    0.1914    0.1205    0.2681   -0.1759    0.1332   -0.3397
  Py  C    4    0.1051    0.0311    0.1156   -0.1353    0.1921    0.2737   -0.2210   -0.2002
  Pz  C    4   -0.0014    0.0074    0.0685    0.0104    0.1007   -0.0031    0.0002   -0.1208
  S   C    5    0.3634   -0.2722   -0.3827   -0.2135   -0.2785   -0.0461   -0.2050    0.0024
  Px  C    5    0.0677   -0.1580    0.1190    0.2664   -0.1181    0.1651    0.0736    0.3656
  Py  C    5    0.1075    0.0955   -0.0495   -0.0688    0.2106    0.2743    0.1908   -0.1667
  Pz  C    5    0.0347   -0.0265    0.0235    0.0591    0.0021    0.0865    0.0493    0.0696
  S   C    6    0.3577    0.1859   -0.4284   -0.1547    0.3194   -0.0522    0.2113    0.0018
  Px  C    6    0.1278   -0.0139    0.0097    0.0281   -0.1353    0.3198   -0.1932    0.0015
  Py  C    6    0.0108    0.2047    0.0874    0.3027    0.1415    0.0223    0.0136    0.3984
  Pz  C    6    0.0352    0.0285    0.0163    0.0550   -0.0133    0.0875   -0.0487    0.0629
  S   H    7    0.1272    0.2444   -0.0274    0.2772   -0.0275   -0.2319   -0.2997    0.0072
  S   H    8    0.1157    0.1354    0.1969   -0.1521   -0.2159   -0.2386    0.2679    0.0263
  S   H    9    0.1127   -0.0917    0.2186   -0.1060    0.2374   -0.2401   -0.2616    0.0177
  S   H   10    0.1272   -0.2443    0.0275    0.2773   -0.0273   -0.2318    0.2998   -0.0075
  S   H   11    0.1159   -0.1355   -0.1969   -0.1521   -0.2159   -0.2387   -0.2678   -0.0262
  S   H   12    0.1128    0.0917   -0.2185   -0.1060    0.2374   -0.2402    0.2616   -0.0176


   Root No.       9        10        11        12        13        14        15        16

                 9 ????   10 ????    1 a2u     1 e2g     1 e2g     1 e1g     1 e1g    16 ????

                -8.400    -8.212    -7.520    -6.135    -6.055    -4.428    -4.351    -0.516
  
  S   C    1   -0.1140    0.0160   -0.0002   -0.0079    0.0005    0.0001    0.0002    0.0000
  Px  C    1   -0.2324   -0.0729   -0.0974   -0.1323    0.3139    0.0460    0.1204    0.0194
  Py  C    1    0.3649   -0.1008   -0.0580    0.2797    0.1612    0.0275    0.0721    0.0116
  Pz  C    1   -0.0037   -0.0353    0.3690    0.0089    0.1082   -0.1749   -0.4581   -0.0734
  S   C    2   -0.0400   -0.0822    0.0000    0.0013   -0.0006    0.0000   -0.0001   -0.0001
  Px  C    2    0.2206    0.0593   -0.1038    0.1830   -0.3027   -0.0797    0.1272    0.1172
  Py  C    2    0.2005    0.3710   -0.0622   -0.3171   -0.1243   -0.0475    0.0761    0.0701
  Pz  C    2    0.0895    0.0737    0.3964   -0.0020   -0.0989    0.3029   -0.4838   -0.4455
  S   C    3    0.0203   -0.0825    0.0001    0.0002    0.0022    0.0002    0.0000    0.0002
  Px  C    3   -0.1872    0.4201   -0.1062   -0.1538    0.2845   -0.1519   -0.0300   -0.1322
  Py  C    3   -0.1505   -0.0806   -0.0637    0.3425    0.1564   -0.0914   -0.0180   -0.0794
  Pz  C    3   -0.0730    0.0973    0.4045    0.0134    0.0996    0.5788    0.1145    0.5035
  S   C    4    0.1140   -0.0160   -0.0001   -0.0079    0.0004   -0.0001   -0.0002    0.0000
  Px  C    4   -0.2325   -0.0730   -0.0968    0.1322   -0.3139   -0.0460   -0.1205    0.0192
  Py  C    4    0.3648   -0.1009   -0.0582   -0.2798   -0.1616   -0.0275   -0.0721    0.0115
  Pz  C    4   -0.0037   -0.0353    0.3691   -0.0096   -0.1078    0.1750    0.4581   -0.0734
  S   C    5    0.0400    0.0821    0.0001    0.0014   -0.0007    0.0000    0.0000   -0.0000
  Px  C    5    0.2208    0.0593   -0.1042   -0.1826    0.3025    0.0794   -0.1269    0.1168
  Py  C    5    0.2007    0.3708   -0.0620    0.3171    0.1242    0.0476   -0.0761    0.0700
  Pz  C    5    0.0894    0.0737    0.3966    0.0016    0.0990   -0.3026    0.4840   -0.4453
  S   C    6   -0.0203    0.0825    0.0001    0.0003    0.0023   -0.0001   -0.0000    0.0001
  Px  C    6   -0.1874    0.4199   -0.1059    0.1541   -0.2846    0.1521    0.0301   -0.1322
  Py  C    6   -0.1506   -0.0806   -0.0638   -0.3423   -0.1564    0.0909    0.0180   -0.0791
  Pz  C    6   -0.0730    0.0974    0.4048   -0.0137   -0.0991   -0.5786   -0.1148    0.5033
  S   H    7    0.2790   -0.0281    0.0003    0.2916   -0.0288   -0.0001   -0.0000   -0.0000
  S   H    8    0.2002    0.2308    0.0002   -0.1708   -0.2410    0.0000    0.0000    0.0001
  S   H    9   -0.1406    0.2766   -0.0001   -0.1215    0.2698   -0.0000   -0.0000   -0.0001
  S   H   10   -0.2790    0.0281    0.0002    0.2916   -0.0286   -0.0000    0.0000   -0.0000
  S   H   11   -0.2004   -0.2307   -0.0002   -0.1709   -0.2409    0.0000   -0.0001    0.0000
  S   H   12    0.1408   -0.2766   -0.0004   -0.1216    0.2699    0.0000    0.0001   -0.0001


   Root No.      17        18        19        20        21        22        23        24

                17 ????    1 b1g    19 ????   20 ????   21 ????    1 a2g    23 ????   24 ????

                 6.354     7.601    10.314    10.431    11.004    11.109    11.482    11.545
  
  S   C    1   -0.0002   -0.0002   -0.0222    0.0032   -0.2665    0.0048   -0.3824    0.1729
  Px  C    1   -0.1476   -0.1222   -0.1472    0.3511    0.1585    0.3558    0.0781    0.2126
  Py  C    1   -0.0884   -0.0733    0.3043    0.1774   -0.2628    0.2105   -0.1593   -0.3175
  Pz  C    1    0.5617    0.4654    0.0093    0.1202    0.0001    0.1266   -0.0048    0.0060
  S   C    2   -0.0000   -0.0001   -0.0336   -0.0563   -0.1069   -0.0380    0.1449   -0.0305
  Px  C    2    0.0837    0.0952   -0.1872    0.3113   -0.0950    0.3526   -0.1261    0.2473
  Py  C    2    0.0501    0.0570    0.2852    0.0956   -0.0977   -0.1751    0.1669    0.2328
  Pz  C    2   -0.3187   -0.3623   -0.0044    0.0970   -0.0403    0.0652   -0.0069    0.1017
  S   C    3   -0.0000    0.0001    0.0262   -0.0682   -0.0931    0.0244   -0.1148   -0.0170
  Px  C    3    0.0525   -0.0866   -0.1235    0.2420   -0.1069   -0.0000   -0.0775    0.1802
  Py  C    3    0.0315   -0.0520    0.3310    0.1716   -0.0275   -0.3847    0.1684    0.1505
  Pz  C    3   -0.2001    0.3303    0.0198    0.0905   -0.0323   -0.0607    0.0062    0.0710
  S   C    4   -0.0003    0.0002    0.0222   -0.0033   -0.2666    0.0046    0.3823    0.1728
  Px  C    4   -0.1476    0.1223   -0.1469    0.3507   -0.1593   -0.3557    0.0779   -0.2121
  Py  C    4   -0.0884    0.0732    0.3045    0.1780    0.2625   -0.2105   -0.1588    0.3179
  Pz  C    4    0.5617   -0.4654    0.0092    0.1202   -0.0008   -0.1266   -0.0042   -0.0056
  S   C    5    0.0000   -0.0000    0.0339    0.0558   -0.1071   -0.0377   -0.1446   -0.0299
  Px  C    5    0.0837   -0.0952   -0.1871    0.3114    0.0943   -0.3526   -0.1260   -0.2472
  Py  C    5    0.0502   -0.0570    0.2855    0.0958    0.0975    0.1751    0.1685   -0.2334
  Pz  C    5   -0.3188    0.3626   -0.0042    0.0967    0.0401   -0.0649   -0.0066   -0.1016
  S   C    6   -0.0000   -0.0001   -0.0264    0.0677   -0.0935    0.0241    0.1147   -0.0165
  Px  C    6    0.0526    0.0869   -0.1240    0.2424    0.1066    0.0000   -0.0796   -0.1805
  Py  C    6    0.0315    0.0520    0.3312    0.1714    0.0271    0.3848    0.1690   -0.1502
  Pz  C    6   -0.2002   -0.3304    0.0194    0.0907    0.0324    0.0604    0.0056   -0.0711
  S   H    7    0.0001    0.0001   -0.3247    0.0328    0.4491    0.0051    0.3846    0.1944
  S   H    8    0.0000    0.0001   -0.1571   -0.2261    0.2128    0.0092   -0.1893   -0.2697
  S   H    9    0.0000   -0.0002    0.1065   -0.2425    0.1852    0.0018    0.1598   -0.1614
  S   H   10    0.0002   -0.0002    0.3247   -0.0321    0.4493    0.0053   -0.3841    0.1946
  S   H   11   -0.0000    0.0000    0.1572    0.2267    0.2124    0.0089    0.1903   -0.2704
  S   H   12    0.0000    0.0001   -0.1068    0.2433    0.1851    0.0020   -0.1616   -0.1620


   Root No.      25        26        27        28        29        30

                25 ????   26 ????   27 ????   28 ????   29 ????    2 b2u 

                11.634    11.785    12.035    12.120    12.163    12.736
  
  S   C    1   -0.0788    0.3615    0.1581   -0.0427    0.0627    0.2228
  Px  C    1    0.0775    0.0697   -0.1209    0.1550    0.2201    0.1542
  Py  C    1    0.1292   -0.0464   -0.0478    0.1031    0.1257   -0.2722
  Pz  C    1    0.0407    0.0112   -0.0392    0.0569    0.0777   -0.0022
  S   C    2   -0.0896   -0.3357    0.3174   -0.3338   -0.1449   -0.2807
  Px  C    2    0.0190    0.1166    0.2332   -0.1339    0.1714    0.0825
  Py  C    2    0.3605   -0.0865    0.1248    0.0694   -0.1483    0.2819
  Pz  C    2    0.0617    0.0171    0.0808   -0.0241    0.0217    0.0661
  S   C    3    0.1508   -0.1923   -0.0838    0.4120   -0.3425    0.3027
  Px  C    3   -0.4128   -0.1006   -0.0809    0.0366   -0.2365   -0.2784
  Py  C    3    0.0506    0.2216   -0.2832    0.1111    0.0373    0.0373
  Pz  C    3   -0.1004    0.0086   -0.0658    0.0269   -0.0560   -0.0673
  S   C    4   -0.0765    0.3621   -0.1587   -0.0427   -0.0612   -0.2228
  Px  C    4   -0.0777   -0.0707   -0.1237   -0.1451    0.2254    0.1543
  Py  C    4   -0.1297    0.0458   -0.0494   -0.0974    0.1286   -0.2720
  Pz  C    4   -0.0409   -0.0111   -0.0404   -0.0535    0.0794   -0.0024
  S   C    5   -0.0903   -0.3362   -0.3228   -0.3232    0.1556    0.2806
  Px  C    5   -0.0205   -0.1176    0.2350    0.1363    0.1669    0.0827
  Py  C    5   -0.3593    0.0869    0.1231   -0.0767   -0.1457    0.2817
  Pz  C    5   -0.0619   -0.0172    0.0811    0.0238    0.0209    0.0660
  S   C    6    0.1506   -0.1929    0.0906    0.4224    0.3276   -0.3026
  Px  C    6    0.4129    0.1007   -0.0812   -0.0435   -0.2335   -0.2783
  Py  C    6   -0.0493   -0.2216   -0.2850   -0.1051    0.0410    0.0370
  Pz  C    6    0.1007   -0.0083   -0.0662   -0.0281   -0.0551   -0.0672
  S   H    7   -0.0048   -0.1625   -0.0999    0.0207   -0.0250    0.0786
  S   H    8   -0.2259    0.2430   -0.3829    0.2162    0.1221   -0.0401
  S   H    9    0.2666    0.2133    0.1384   -0.3060    0.4092    0.0204
  S   H   10   -0.0064   -0.1628    0.1004    0.0204    0.0239   -0.0786
  S   H   11   -0.2251    0.2432    0.3858    0.2056   -0.1288    0.0400
  S   H   12    0.2667    0.2137   -0.1432   -0.3178   -0.3966   -0.0204


           BETA EIGENVECTORS  


   Root No.       1         2         3         4         5         6         7         8

                 1 a1g     2 ????    3 ????    4 ????    5 ????    2 a1g     1 b2u     1 b1u 

               -23.737   -19.845   -19.186   -14.982   -14.754   -12.249    -9.798    -9.007
  
  S   C    1    0.3880    0.4806   -0.0497    0.3341   -0.0326   -0.0177   -0.1741   -0.0016
  Px  C    1    0.0683    0.0077    0.1938   -0.1272   -0.2699    0.1783    0.1380   -0.3463
  Py  C    1   -0.1054    0.0313    0.1169    0.1390   -0.1981   -0.2740   -0.2313   -0.2026
  Pz  C    1    0.0014    0.0070    0.0693   -0.0115   -0.1021    0.0037   -0.0002   -0.1229
  S   C    2    0.3611    0.2658    0.3844   -0.2180   -0.2726   -0.0470    0.2041    0.0001
  Px  C    2   -0.0678   -0.1577    0.1185   -0.2608    0.1197   -0.1696    0.0662    0.3648
  Py  C    2   -0.1075    0.0942   -0.0495    0.0705   -0.2125   -0.2690    0.1887   -0.1627
  Pz  C    2   -0.0348   -0.0266    0.0233   -0.0574   -0.0020   -0.0869    0.0471    0.0704
  S   C    3    0.3542   -0.1843    0.4242   -0.1527    0.3163   -0.0553   -0.2114    0.0002
  Px  C    3   -0.1276   -0.0130    0.0086   -0.0215    0.1330   -0.3165   -0.1850    0.0031
  Py  C    3   -0.0110    0.2022    0.0890   -0.3003   -0.1379   -0.0269    0.0182    0.3925
  Pz  C    3   -0.0353    0.0285    0.0162   -0.0529    0.0131   -0.0873   -0.0456    0.0627
  S   C    4    0.3881   -0.4805    0.0499    0.3342   -0.0324   -0.0176    0.1741    0.0015
  Px  C    4   -0.0685    0.0079    0.1938    0.1272    0.2699   -0.1783    0.1381   -0.3464
  Py  C    4    0.1053    0.0314    0.1169   -0.1390    0.1980    0.2740   -0.2313   -0.2024
  Pz  C    4   -0.0013    0.0069    0.0693    0.0116    0.1021   -0.0037   -0.0001   -0.1229
  S   C    5    0.3614   -0.2659   -0.3842   -0.2179   -0.2725   -0.0470   -0.2040   -0.0001
  Px  C    5    0.0678   -0.1577    0.1185    0.2609   -0.1196    0.1697    0.0661    0.3649
  Py  C    5    0.1075    0.0943   -0.0494   -0.0706    0.2125    0.2691    0.1886   -0.1628
  Pz  C    5    0.0347   -0.0266    0.0234    0.0574    0.0020    0.0869    0.0470    0.0701
  S   C    6    0.3544    0.1846   -0.4240   -0.1526    0.3163   -0.0552    0.2114   -0.0002
  Px  C    6    0.1276   -0.0130    0.0086    0.0215   -0.1329    0.3166   -0.1849    0.0030
  Py  C    6    0.0110    0.2024    0.0891    0.3004    0.1378    0.0269    0.0182    0.3927
  Pz  C    6    0.0352    0.0284    0.0163    0.0529   -0.0133    0.0874   -0.0458    0.0625
  S   H    7    0.1284    0.2460   -0.0263    0.2793   -0.0313   -0.2287   -0.3022    0.0083
  S   H    8    0.1158    0.1336    0.1997   -0.1535   -0.2173   -0.2410    0.2681    0.0302
  S   H    9    0.1127   -0.0923    0.2194   -0.1028    0.2401   -0.2446   -0.2623    0.0200
  S   H   10    0.1285   -0.2460    0.0265    0.2793   -0.0311   -0.2286    0.3023   -0.0086
  S   H   11    0.1159   -0.1337   -0.1996   -0.1535   -0.2172   -0.2412   -0.2680   -0.0301
  S   H   12    0.1127    0.0923   -0.2192   -0.1027    0.2400   -0.2446    0.2623   -0.0199


   Root No.       9        10        11        12        13        14        15        16

                 9 ????   10 ????    1 a2u     1 e2g     1 e2g    14 ????   15 ????   16 ????

                -8.386    -8.120    -7.123    -6.073    -6.004    -3.945    -3.148     6.112
  
  S   C    1   -0.1211    0.0174   -0.0002   -0.0121    0.0004   -0.0002    0.0000   -0.0002
  Px  C    1   -0.2292   -0.0724   -0.1123   -0.1226    0.3214   -0.1513    0.0157   -0.1371
  Py  C    1    0.3645   -0.0994   -0.0669    0.2851    0.1570   -0.0906    0.0094   -0.0821
  Pz  C    1   -0.0030   -0.0348    0.4258    0.0122    0.1096    0.5755   -0.0595    0.5217
  S   C    2   -0.0351   -0.0847    0.0000    0.0052   -0.0024    0.0001    0.0001   -0.0000
  Px  C    2    0.2171    0.0538   -0.0988    0.1750   -0.3024   -0.0765   -0.1212    0.0938
  Py  C    2    0.2037    0.3708   -0.0594   -0.3222   -0.1136   -0.0458   -0.0724    0.0562
  Pz  C    2    0.0891    0.0723    0.3773   -0.0050   -0.0971    0.2910    0.4608   -0.3571
  S   C    3    0.0148   -0.0817    0.0001    0.0033    0.0035   -0.0001    0.0002   -0.0000
  Px  C    3   -0.1886    0.4166   -0.0960   -0.1471    0.2844    0.0533   -0.1290    0.0628
  Py  C    3   -0.1499   -0.0853   -0.0574    0.3446    0.1430    0.0320   -0.0776    0.0377
  Pz  C    3   -0.0732    0.0958    0.3649    0.0154    0.0975   -0.2029    0.4915   -0.2394
  S   C    4    0.1211   -0.0174   -0.0002   -0.0121    0.0003    0.0002   -0.0000   -0.0003
  Px  C    4   -0.2293   -0.0724   -0.1117    0.1226   -0.3214    0.1513   -0.0156   -0.1371
  Py  C    4    0.3644   -0.0994   -0.0672   -0.2852   -0.1574    0.0906   -0.0094   -0.0821
  Pz  C    4   -0.0030   -0.0349    0.4259   -0.0131   -0.1090   -0.5754    0.0597    0.5218
  S   C    5    0.0351    0.0847    0.0001    0.0052   -0.0025   -0.0000   -0.0000    0.0000
  Px  C    5    0.2173    0.0538   -0.0994   -0.1746    0.3021    0.0763    0.1208    0.0938
  Py  C    5    0.2039    0.3706   -0.0590    0.3222    0.1134    0.0458    0.0724    0.0562
  Pz  C    5    0.0890    0.0723    0.3776    0.0045    0.0973   -0.2912   -0.4605   -0.3573
  S   C    6   -0.0147    0.0816    0.0001    0.0033    0.0036    0.0001   -0.0001   -0.0000
  Px  C    6   -0.1888    0.4164   -0.0955    0.1474   -0.2844   -0.0533    0.1291    0.0630
  Py  C    6   -0.1501   -0.0853   -0.0577   -0.3443   -0.1430   -0.0319    0.0772    0.0377
  Pz  C    6   -0.0733    0.0959    0.3653   -0.0158   -0.0969    0.2032   -0.4912   -0.2395
  S   H    7    0.2709   -0.0264    0.0003    0.2863   -0.0359    0.0001   -0.0000    0.0001
  S   H    8    0.2072    0.2319    0.0001   -0.1805   -0.2383   -0.0000   -0.0000    0.0000
  S   H    9   -0.1484    0.2821   -0.0002   -0.1173    0.2784   -0.0000    0.0000    0.0000
  S   H   10   -0.2708    0.0265    0.0003    0.2864   -0.0357   -0.0001   -0.0000    0.0002
  S   H   11   -0.2074   -0.2318   -0.0001   -0.1805   -0.2383    0.0001    0.0000   -0.0000
  S   H   12    0.1486   -0.2821   -0.0004   -0.1174    0.2784   -0.0001   -0.0000   -0.0000


   Root No.      17        18        19        20        21        22        23        24

                17 ????    1 b1g     1 e1u     1 e1u    21 ????    1 a2g    23 ????   24 ????

                 6.874     8.843    10.400    10.460    10.985    11.200    11.486    11.557
  
  S   C    1    0.0001   -0.0002    0.0056    0.0088   -0.2753   -0.0252    0.3848    0.1889
  Px  C    1    0.0157   -0.0918    0.1837    0.3355    0.1593   -0.3752   -0.0684    0.1845
  Py  C    1    0.0094   -0.0551   -0.3039    0.1950   -0.2705   -0.1946    0.1447   -0.3221
  Pz  C    1   -0.0594    0.3499    0.0003    0.1188   -0.0009   -0.1292    0.0051   -0.0021
  S   C    2   -0.0001   -0.0001    0.0121   -0.0628   -0.0949    0.0778   -0.1463   -0.0259
  Px  C    2    0.1138    0.1053    0.1958    0.3043   -0.0954   -0.3683    0.1404    0.2358
  Py  C    2    0.0680    0.0629   -0.2616    0.1191   -0.0855    0.1452   -0.1825    0.2323
  Pz  C    2   -0.4325   -0.4004    0.0105    0.0988   -0.0385   -0.0741    0.0082    0.0985
  S   C    3    0.0002    0.0001   -0.0175   -0.0640   -0.0837   -0.0398    0.1081   -0.0269
  Px  C    3   -0.1355   -0.1096    0.1319    0.2337   -0.0978    0.0160    0.0742    0.1964
  Py  C    3   -0.0814   -0.0658   -0.2984    0.1961   -0.0287    0.3606   -0.1885    0.1762
  Pz  C    3    0.5162    0.4179   -0.0126    0.0922   -0.0301    0.0611   -0.0102    0.0793
  S   C    4    0.0000    0.0002   -0.0056   -0.0090   -0.2754   -0.0249   -0.3847    0.1889
  Px  C    4    0.0155    0.0920    0.1834    0.3351   -0.1601    0.3752   -0.0679   -0.1840
  Py  C    4    0.0092    0.0550   -0.3040    0.1955    0.2702    0.1945    0.1446    0.3224
  Pz  C    4   -0.0591   -0.3499    0.0005    0.1189    0.0002    0.1292    0.0046    0.0025
  S   C    5   -0.0000   -0.0000   -0.0124    0.0624   -0.0951    0.0775    0.1462   -0.0254
  Px  C    5    0.1135   -0.1050    0.1958    0.3044    0.0947    0.3683    0.1405   -0.2357
  Py  C    5    0.0680   -0.0630   -0.2619    0.1194    0.0854   -0.1452   -0.1835   -0.2328
  Pz  C    5   -0.4326    0.4002    0.0101    0.0985    0.0383    0.0738    0.0081   -0.0985
  S   C    6    0.0001   -0.0001    0.0176    0.0635   -0.0840   -0.0395   -0.1083   -0.0264
  Px  C    6   -0.1357    0.1098    0.1324    0.2340    0.0974   -0.0160    0.0754   -0.1967
  Py  C    6   -0.0811    0.0657   -0.2985    0.1959    0.0282   -0.3607   -0.1891   -0.1759
  Pz  C    6    0.5163   -0.4176   -0.0120    0.0923    0.0301   -0.0608   -0.0100   -0.0794
  S   H    7   -0.0000    0.0002    0.3522    0.0052    0.4646   -0.0112   -0.3708    0.1771
  S   H    8    0.0001    0.0000    0.1432   -0.2348    0.1921   -0.0084    0.1959   -0.2649
  S   H    9   -0.0001   -0.0002   -0.1234   -0.2316    0.1666   -0.0028   -0.1503   -0.1677
  S   H   10   -0.0001   -0.0002   -0.3522   -0.0044    0.4648   -0.0116    0.3705    0.1771
  S   H   11   -0.0000    0.0000   -0.1432    0.2354    0.1917   -0.0081   -0.1966   -0.2654
  S   H   12   -0.0001    0.0001    0.1237    0.2323    0.1664   -0.0030    0.1514   -0.1683


   Root No.      25        26        27        28        29        30

                25 ????   26 ????   27 ????   28 ????   29 ????   30 ????

                11.781    11.855    12.150    12.263    12.386    12.900
  
  S   C    1   -0.1580   -0.3120   -0.1589   -0.0929   -0.0428    0.1980
  Px  C    1    0.0202   -0.0563    0.1367   -0.2150    0.1429    0.1363
  Py  C    1    0.1022    0.0366    0.1003   -0.0864    0.1065   -0.2608
  Pz  C    1    0.0213   -0.0092    0.0516   -0.0702    0.0543   -0.0051
  S   C    2    0.0713    0.3189   -0.3201    0.1214   -0.3502   -0.2987
  Px  C    2    0.0115   -0.1041   -0.2141   -0.2087   -0.1413    0.0387
  Py  C    2    0.3656   -0.0080   -0.1638    0.0988    0.1483    0.2892
  Pz  C    2    0.0605   -0.0286   -0.0819   -0.0393   -0.0137    0.0557
  S   C    3    0.1222    0.1879    0.0079    0.3209    0.4359    0.3375
  Px  C    3   -0.3638    0.2205    0.0628    0.2748   -0.0385   -0.2617
  Py  C    3   -0.0220   -0.2375    0.2956   -0.0014    0.1449    0.0704
  Pz  C    3   -0.0989    0.0204    0.0630    0.0718    0.0125   -0.0577
  S   C    4   -0.1565   -0.3129    0.1591    0.0933   -0.0408   -0.1980
  Px  C    4   -0.0204    0.0575    0.1377   -0.2131   -0.1451    0.1363
  Py  C    4   -0.1023   -0.0361    0.1006   -0.0845   -0.1065   -0.2607
  Pz  C    4   -0.0216    0.0092    0.0521   -0.0692   -0.0549   -0.0053
  S   C    5    0.0711    0.3197    0.3217   -0.1162   -0.3504    0.2982
  Px  C    5   -0.0127    0.1054   -0.2143   -0.2105    0.1376    0.0390
  Py  C    5   -0.3649    0.0074   -0.1624    0.1010   -0.1481    0.2889
  Pz  C    5   -0.0607    0.0289   -0.0818   -0.0394    0.0129    0.0557
  S   C    6    0.1218    0.1888   -0.0101   -0.3260    0.4322   -0.3371
  Px  C    6    0.3642   -0.2210    0.0623    0.2723    0.0426   -0.2616
  Py  C    6    0.0232    0.2374    0.2963    0.0008   -0.1435    0.0699
  Pz  C    6    0.0994   -0.0208    0.0630    0.0718   -0.0115   -0.0577
  S   H    7    0.0373    0.1412    0.0739    0.0196    0.0131    0.0775
  S   H    8   -0.3272   -0.1634    0.3935   -0.0591    0.1659   -0.0178
  S   H    9    0.2354   -0.3097   -0.0708   -0.4183   -0.2485   -0.0143
  S   H   10    0.0366    0.1416   -0.0741   -0.0194    0.0129   -0.0774
  S   H   11   -0.3270   -0.1638   -0.3935    0.0567    0.1648    0.0179
  S   H   12    0.2361   -0.3105    0.0720    0.4194   -0.2429    0.0141


              NET ATOMIC CHARGES AND DIPOLE CONTRIBUTIONS

  ATOM NO.   TYPE          CHARGE      No. of ELECS.   s-Pop       p-Pop       
    1          C          -0.086725        4.0867     1.07751     3.00922
    2          C          -0.308391        4.3084     1.05118     3.25721
    3          C          -0.369507        4.3695     1.04391     3.32560
    4          C          -0.086773        4.0868     1.07751     3.00926
    5          C          -0.308183        4.3082     1.05116     3.25702
    6          C          -0.369374        4.3694     1.04391     3.32546
    7          H           0.079853        0.9201     0.92015
    8          H           0.090785        0.9092     0.90921
    9          H           0.093839        0.9062     0.90616
   10          H           0.079846        0.9202     0.92015
   11          H           0.090784        0.9092     0.90922
   12          H           0.093842        0.9062     0.90616
 DIPOLE           X         Y         Z       TOTAL
 POINT-CHG.    -0.002    -0.001    -0.001     0.002
 HYBRID         0.000     0.000    -0.001     0.001
 SUM           -0.001    -0.001    -0.002     0.003


          ATOMIC ORBITAL ELECTRON POPULATIONS

     Atom    s        px        py        pz   
    1  C   1.07751   1.00757   1.01696   0.98468
    2  C   1.05118   1.01342   1.03621   1.20759
    3  C   1.04391   1.05363   1.00307   1.26890
    4  C   1.07751   1.00758   1.01699   0.98469
    5  C   1.05116   1.01333   1.03621   1.20749
    6  C   1.04391   1.05365   1.00302   1.26879
    7  H   0.92015
    8  H   0.90921
    9  H   0.90616
   10  H   0.92015
   11  H   0.90922
   12  H   0.90616


                    (SZ)    =    0.500000
                    (S**2)  =    0.809764


          ATOMIC ORBITAL SPIN POPULATIONS

    Atom   Total    s     px     py     pz   
         Atomic
    1  C -0.1765 -0.007 -0.020 -0.014 -0.135
    2  C  0.2802  0.005  0.025  0.008  0.242
    3  C  0.4130  0.009  0.035  0.018  0.351
    4  C -0.1765 -0.007 -0.020 -0.014 -0.135
    5  C  0.2799  0.005  0.024  0.008  0.242
    6  C  0.4127  0.009  0.035  0.018  0.351
    7  H  0.0047  0.005
    8  H -0.0085 -0.009
    9  H -0.0127 -0.013
   10  H  0.0047  0.005
   11  H -0.0085 -0.009
   12  H -0.0126 -0.013

           DATA FOR GRAPH WRITTEN TO DISK

 **********************
 *                    *
 * JOB ENDED NORMALLY *
 *                    *
 **********************



 TOTAL JOB TIME:             0.12 SECONDS

 == MOPAC DONE ==
