 *******************************************************************************
 ** Site#: 29116        For non-commercial use only    Version 19.024L 64BITS **
 *******************************************************************************
 ** Cite this program as: MOPAC2016, Version: 19.024L, James J. P. Stewart,   **
 ** Stewart Computational Chemistry, web: HTTP://OpenMOPAC.net. Days left: 228**
 *******************************************************************************
 **                                                                           **
 **                                MOPAC2016                                  **
 **                                                                           **
 *******************************************************************************

                              PM7 CALCULATION RESULTS

 *******************************************************************************
 *  CALCULATION DONE:                                Mon Jun 10 15:40:47 2019  *
 *  PM7        - The PM7 Hamiltonian to be used
 *  SINGLET    - SPIN STATE DEFINED AS A SINGLET
 *
 *
 *
 *                 CHARGE ON SYSTEM = 0
 *
 *
 *
 *  1SCF       - DO 1 SCF AND THEN STOP 
 *  T=         - A TIME OF 172800.0 SECONDS REQUESTED
 *  DUMP=N     - RESTART FILE WRITTEN EVERY  7200.000 SECONDS
 *  AUX        - OUTPUT AUXILIARY INFORMATION
 *  BONDS      - FINAL BOND-ORDER MATRIX TO BE PRINTED
 *******************************************************************************
PM7 1SCF    CHARGE=0 Singlet  BONDS AUX

 Mopac file generated by Gabedit
   ATOM   CHEMICAL          X               Y               Z
  NUMBER   SYMBOL      (ANGSTROMS)     (ANGSTROMS)     (ANGSTROMS)
 
     1       C          0.81127639  *   0.46470281  *   0.00008545  *
     2       C         -0.66697938  *   0.60265201  *  -0.00008310  *
     3       C         -1.46847835  *  -0.46857764  *   0.00004476  *
     4       H         -1.06752269  *   1.61472511  *  -0.00023403  *
     5       H         -2.55092217  *  -0.38156522  *  -0.00001742  *
     6       H         -1.04088787  *  -1.46775636  *   0.00024280  *
     7       H          1.37413283  *   1.42321831  *   0.00037206  *
     8       O          1.40378599  *  -0.59766061  *  -0.00008076  *
 


          CARTESIAN COORDINATES 

    NO.       ATOM           X           Y           Z

     1         C          0.8113      0.4647      0.0001
     2         C         -0.6670      0.6027     -0.0001
     3         C         -1.4685     -0.4686      0.0000
     4         H         -1.0675      1.6147     -0.0002
     5         H         -2.5509     -0.3816     -0.0000
     6         H         -1.0409     -1.4678      0.0002
     7         H          1.3741      1.4232      0.0004
     8         O          1.4038     -0.5977     -0.0001

 General Reference for PM7:
 "Optimization of Parameters for Semiempirical Methods VI: More Modifications to the 
 NDDO Approximations and Re-optimization of Parameters", J. J. P. Stewart, J. Mol. Mod., 1:32, 19 (2013)
 http://www.springerlink.com/openurl.asp?genre=article&id=doi:10.1007/s00894-012-1667-x

           Empirical Formula: C3 H4 O  =     8 atoms



      MOLECULAR POINT GROUP   :   Cs  


 SINGLET STATE CALCULATION


      RHF CALCULATION, NO. OF DOUBLY OCCUPIED LEVELS = 11


 -------------------------------------------------------------------------------
 PM7 1SCF    CHARGE=0 Singlet  BONDS AUX

 Mopac file generated by Gabedit


     1SCF WAS SPECIFIED, SO BFGS WAS NOT USED                 
     SCF FIELD WAS ACHIEVED                                   


                              PM7 CALCULATION
                                                       MOPAC2016 (Version: 19.024L)
                                                       Mon Jun 10 15:40:47 2019
                                                       No. of days remaining = 228




          FINAL HEAT OF FORMATION =        -14.35992 KCAL/MOL =     -60.08192 KJ/MOL


          TOTAL ENERGY            =       -716.75009 EV
          ELECTRONIC ENERGY       =      -2024.13168 EV  POINT GROUP:     Cs  
          CORE-CORE REPULSION     =       1307.38159 EV
          COSMO AREA              =         96.32 SQUARE ANGSTROMS
          COSMO VOLUME            =         79.55 CUBIC ANGSTROMS

          IONIZATION POTENTIAL    =         10.257222 EV
          HOMO LUMO ENERGIES (EV) =        -10.257 -0.376
          NO. OF FILLED LEVELS    =         11
          MOLECULAR WEIGHT        =         56.0640

          MOLECULAR DIMENSIONS (Angstroms)

            Atom       Atom       Distance
            H     7    H     5     4.32010
            O     8    H     4     3.04250
            H     6    H     4     0.00056


          SCF CALCULATIONS        =          1
 
          WALL-CLOCK TIME         =          0.051 SECONDS
          COMPUTATION TIME        =          0.042 SECONDS




   ATOM   CHEMICAL          X               Y               Z
  NUMBER   SYMBOL      (ANGSTROMS)     (ANGSTROMS)     (ANGSTROMS)
 
     1       C          0.81127639  *   0.46470281  *   0.00008545  *
     2       C         -0.66697938  *   0.60265201  *  -0.00008310  *
     3       C         -1.46847835  *  -0.46857764  *   0.00004476  *
     4       H         -1.06752269  *   1.61472511  *  -0.00023403  *
     5       H         -2.55092217  *  -0.38156522  *  -0.00001742  *
     6       H         -1.04088787  *  -1.46775636  *   0.00024280  *
     7       H          1.37413283  *   1.42321831  *   0.00037206  *
     8       O          1.40378599  *  -0.59766061  *  -0.00008076  *

                             CARTESIAN COORDINATES

   1    C        0.811276387     0.464702809     0.000085450
   2    C       -0.666979379     0.602652009    -0.000083095
   3    C       -1.468478353    -0.468577641     0.000044755
   4    H       -1.067522685     1.614725109    -0.000234025
   5    H       -2.550922170    -0.381565219    -0.000017422
   6    H       -1.040887871    -1.467756360     0.000242800
   7    H        1.374132826     1.423218314     0.000372057
   8    O        1.403785994    -0.597660613    -0.000080759


           Empirical Formula: C3 H4 O  =     8 atoms



      MOLECULAR POINT GROUP   :   Cs  


                  EIGENVALUES  
 -30.84397 -27.64223 -23.31578 -19.00222 -17.50262 -15.17227 -14.46098 -14.21008
 -12.98152 -11.10046 -10.25722  -0.37578   1.44275   3.53982   4.62368   4.75204
   5.33618   5.45305   5.73390   5.98223


              NET ATOMIC CHARGES AND DIPOLE CONTRIBUTIONS

  ATOM NO.   TYPE          CHARGE      No. of ELECS.   s-Pop       p-Pop       
    1          C           0.332951        3.6670     1.13889     2.52816
    2          C          -0.305865        4.3059     1.10257     3.20330
    3          C          -0.175267        4.1753     1.11567     3.05959
    4          H           0.158613        0.8414     0.84139
    5          H           0.144875        0.8551     0.85512
    6          H           0.163996        0.8360     0.83600
    7          H           0.108597        0.8914     0.89140
    8          O          -0.427899        6.4279     1.88378     4.54412
 DIPOLE           X         Y         Z       TOTAL
 POINT-CHG.    -2.063     2.031     0.001     2.895
 HYBRID        -0.020    -0.208    -0.000     0.209
 SUM           -2.083     1.824     0.001     2.768


          ATOMIC ORBITAL ELECTRON POPULATIONS

     Atom    s        px        py        pz   
    1  C   1.13889   0.92395   0.92422   0.67999
    2  C   1.10257   1.03752   1.08742   1.07836
    3  C   1.11567   1.09509   1.08654   0.87796
    4  H   0.84139
    5  H   0.85512
    6  H   0.83600
    7  H   0.89140
    8  O   1.88378   1.75088   1.42954   1.36370

          BONDING CONTRIBUTION OF EACH M.O.

  1.3112  1.7788  1.6383  1.6658  1.7762  1.5097  1.6504  1.8119  1.8364  1.9323
  0.7402 -1.8954 -1.8488 -2.1032 -1.9443 -1.9968 -1.9464 -1.9686 -1.9793 -1.9685





            (VALENCIES)   BOND ORDERS

     1  C     (3.831)     8  O 1.868     2  C 0.996     7  H 0.940     3  C 0.015
 
     2  C     (3.964)     3  C 1.940     1  C 0.996     4  H 0.962     8  O 0.053     7  H 0.012
 
     3  C     (3.938)     2  C 1.940     5  H 0.970     6  H 0.963     8  O 0.046     1  C 0.015
 
     4  H     (0.975)     2  C 0.962
 
     5  H     (0.979)     3  C 0.970
 
     6  H     (0.973)     3  C 0.963
 
     7  H     (0.988)     1  C 0.940     8  O 0.032     2  C 0.012
 
     8  O     (2.005)     1  C 1.868     2  C 0.053     3  C 0.046     7  H 0.032
 

 **********************
 *                    *
 * JOB ENDED NORMALLY *
 *                    *
 **********************



 TOTAL JOB TIME:             0.10 SECONDS

 == MOPAC DONE ==
