 *******************************************************************************
 ** Site#: 29116        For non-commercial use only    Version 19.206L 64BITS **
 *******************************************************************************
 ** Cite this program as: MOPAC2016, Version: 19.206L, James J. P. Stewart,   **
 ** Stewart Computational Chemistry, web-site: HTTP://OpenMOPAC.net.          **
 *******************************************************************************
 **                                                                           **
 **                                MOPAC2016                                  **
 **                                                                           **
 *******************************************************************************

                              PM7 CALCULATION RESULTS

 *******************************************************************************
 *  CALCULATION DONE:                                Tue Apr  7 17:36:39 2020  *
 *  PM7        - The PM7 Hamiltonian to be used
 *  DOUBLET    - SPIN STATE DEFINED AS A DOUBLET
 *
 *
 *
 *                 CHARGE ON SYSTEM = +1
 *
 *
 *
 *  1SCF       - DO 1 SCF AND THEN STOP 
 *  T=         - A TIME OF 172800.0 SECONDS REQUESTED
 *  DUMP=N     - RESTART FILE WRITTEN EVERY  7200.000 SECONDS
 *  AUX        - OUTPUT AUXILIARY INFORMATION
 *  VECTORS    - FINAL EIGENVECTORS TO BE PRINTED
 *  LARGE      - EXPANDED OUTPUT TO BE PRINTED
 *  ALLVEC     - PRINT ALL EIGENVECTORS
 *******************************************************************************
PM7 1SCF CHARGE=1 Doublet vectors large allvectors AUX

 Mopac file generated by Gabedit
   ATOM   CHEMICAL          X               Y               Z
  NUMBER   SYMBOL      (ANGSTROMS)     (ANGSTROMS)     (ANGSTROMS)
 
     1       C          0.81130000  *   0.46470000  *   0.00010000  *
     2       C         -0.66700000  *   0.60270000  *  -0.00010000  *
     3       C         -1.46850000  *  -0.46860000  *   0.00000000  *
     4       H         -1.06750000  *   1.61470000  *  -0.00020000  *
     5       H         -2.55090000  *  -0.38160000  *   0.00000000  *
     6       H         -1.04090000  *  -1.46780000  *   0.00020000  *
     7       H          1.37410000  *   1.42320000  *   0.00040000  *
     8       O          1.40380000  *  -0.59770000  *  -0.00010000  *
 


          CARTESIAN COORDINATES 

    NO.       ATOM           X           Y           Z

     1         C          0.8113      0.4647      0.0001
     2         C         -0.6670      0.6027     -0.0001
     3         C         -1.4685     -0.4686      0.0000
     4         H         -1.0675      1.6147     -0.0002
     5         H         -2.5509     -0.3816      0.0000
     6         H         -1.0409     -1.4678      0.0002
     7         H          1.3741      1.4232      0.0004
     8         O          1.4038     -0.5977     -0.0001

 General Reference for PM7:
 "Optimization of Parameters for Semiempirical Methods VI: More Modifications to the 
 NDDO Approximations and Re-optimization of Parameters", J. J. P. Stewart, J. Mol. Mod., 1:32, 19 (2013)
 http://www.springerlink.com/openurl.asp?genre=article&id=doi:10.1007/s00894-012-1667-x

           Empirical Formula: C3 H4 O  =     8 atoms



      MOLECULAR POINT GROUP   :   Cs  


 DOUBLET STATE CALCULATION


          UHF CALCULATION, NO. OF ALPHA ELECTRONS =   11
                           NO. OF BETA  ELECTRONS =   10

 -------------------------------------------------------------------------------
 PM7 1SCF CHARGE=1 Doublet vectors large allvectors AUX

 Mopac file generated by Gabedit


     1SCF WAS SPECIFIED, SO BFGS WAS NOT USED                 
     SCF FIELD WAS ACHIEVED                                   


                              PM7 CALCULATION
                                                       MOPAC2016 (Version: 19.206L)
                                                       Tue Apr  7 17:36:39 2020




          FINAL HEAT OF FORMATION =        209.01852 KCAL/MOL =     874.53351 KJ/MOL


          TOTAL ENERGY            =       -707.06348 EV
          ELECTRONIC ENERGY       =      -2014.43075 EV  POINT GROUP:     Cs  
          CORE-CORE REPULSION     =       1307.36728 EV
          COSMO AREA              =         96.32 SQUARE ANGSTROMS
          COSMO VOLUME            =         79.55 CUBIC ANGSTROMS

          IONIZATION POTENTIAL    =         16.936170 EV
          ALPHA SOMO LUMO (EV)    =        -17.094 -7.298
          BETA  SOMO LUMO (EV)    =        -16.936 -9.086
          NO. OF ALPHA ELECTRONS  =         11
          NO. OF BETA  ELECTRONS  =         10
          MOLECULAR WEIGHT        =         56.0640

          MOLECULAR DIMENSIONS (Angstroms)

            Atom       Atom       Distance
            H     7    H     5     4.32006
            O     8    H     4     3.04252
            H     6    H     4     0.00054


          SCF CALCULATIONS        =          1
 
          WALL-CLOCK TIME         =          0.035 SECONDS
          COMPUTATION TIME        =          0.027 SECONDS




   ATOM   CHEMICAL          X               Y               Z
  NUMBER   SYMBOL      (ANGSTROMS)     (ANGSTROMS)     (ANGSTROMS)
 
     1       C          0.81130000  *   0.46470000  *   0.00010000  *
     2       C         -0.66700000  *   0.60270000  *  -0.00010000  *
     3       C         -1.46850000  *  -0.46860000  *   0.00000000  *
     4       H         -1.06750000  *   1.61470000  *  -0.00020000  *
     5       H         -2.55090000  *  -0.38160000  *   0.00000000  *
     6       H         -1.04090000  *  -1.46780000  *   0.00020000  *
     7       H          1.37410000  *   1.42320000  *   0.00040000  *
     8       O          1.40380000  *  -0.59770000  *  -0.00010000  *

                             CARTESIAN COORDINATES

   1    C        0.811300000     0.464700000     0.000100000
   2    C       -0.667000000     0.602700000    -0.000100000
   3    C       -1.468500000    -0.468600000     0.000000000
   4    H       -1.067500000     1.614700000    -0.000200000
   5    H       -2.550900000    -0.381600000     0.000000000
   6    H       -1.040900000    -1.467800000     0.000200000
   7    H        1.374100000     1.423200000     0.000400000
   8    O        1.403800000    -0.597700000    -0.000100000


           Empirical Formula: C3 H4 O  =     8 atoms



      MOLECULAR POINT GROUP   :   Cs  


          ALPHA EIGENVECTORS  


   Root No.       1         2         3         4         5         6         7         8

                 1 a'      2 a'      3 a'      4 a'      5 a'      6 a'      1 a"      7 a'  

               -41.758   -34.278   -30.364   -25.761   -24.670   -22.569   -22.149   -21.013
  
  S   C    1    0.3350    0.3688    0.5350    0.1354   -0.0140   -0.1138   -0.0000   -0.0517
  Px  C    1    0.1382   -0.2170    0.0349    0.3848    0.3024    0.1988   -0.0000    0.0314
  Py  C    1   -0.2593    0.0661    0.1564   -0.0601    0.4136   -0.3745   -0.0002    0.0199
  Pz  C    1   -0.0000   -0.0000    0.0000    0.0001    0.0001   -0.0002    0.5148   -0.0001
  S   C    2    0.0631    0.5946   -0.0414   -0.3773    0.0986    0.1452    0.0001    0.0898
  Px  C    2    0.0493    0.0183    0.3304   -0.0890   -0.2434   -0.3698   -0.0001   -0.0052
  Py  C    2   -0.0347   -0.1219    0.1750   -0.2276    0.2597    0.0670   -0.0001   -0.4346
  Pz  C    2    0.0000    0.0000    0.0000    0.0000   -0.0000   -0.0001    0.1828    0.0000
  S   C    3    0.0332    0.4756   -0.4611    0.3315    0.0556   -0.1103   -0.0001   -0.0492
  Px  C    3    0.0253    0.1286    0.0201   -0.1335   -0.1817   -0.0311    0.0001    0.5729
  Py  C    3    0.0058    0.1276   -0.0287   -0.2358    0.1394    0.4165    0.0002    0.1118
  Pz  C    3   -0.0000   -0.0000    0.0000    0.0000   -0.0000   -0.0001    0.0799   -0.0000
  S   H    4    0.0090    0.2080    0.0012   -0.2694    0.2350    0.1861    0.0000   -0.2098
  S   H    5    0.0052    0.1576   -0.2165    0.2198    0.1355   -0.0212   -0.0001   -0.3967
  S   H    6    0.0210    0.1822   -0.1936    0.2516   -0.0952   -0.3101   -0.0001    0.0323
  S   H    7    0.0742    0.1366    0.3082    0.1350    0.3010   -0.2213   -0.0000   -0.0245
  S   O    8    0.8524   -0.2169   -0.2617   -0.2384    0.1483   -0.1967   -0.0000    0.0138
  Px  O    8   -0.1206   -0.1097   -0.0844    0.0175    0.5904   -0.1345   -0.0001    0.4750
  Py  O    8    0.2121    0.0760    0.2789    0.4301    0.0397    0.4704   -0.0001    0.1641
  Pz  O    8    0.0000    0.0000    0.0000    0.0002    0.0001   -0.0001    0.8338   -0.0001


   Root No.       9        10        11        12        13        14        15        16

                 8 a'      9 a'      2 a"      3 a"      4 a"     10 a'     11 a'     12 a'  

               -19.247   -18.364   -17.094    -7.298    -4.849    -3.812    -3.103    -2.191
  
  S   C    1    0.0918   -0.0863   -0.0000    0.0000    0.0001    0.5229   -0.2349   -0.2915
  Px  C    1    0.1692    0.3566   -0.0000   -0.0001    0.0000    0.1297    0.6191   -0.2925
  Py  C    1    0.2247    0.0873   -0.0001   -0.0002   -0.0002   -0.4853   -0.2176   -0.4708
  Pz  C    1    0.0001    0.0001    0.1520    0.7575    0.3715   -0.0002    0.0000   -0.0002
  S   C    2   -0.1071   -0.0012   -0.0000   -0.0000    0.0000   -0.1084    0.3099    0.0221
  Px  C    2   -0.2019   -0.3518   -0.0001   -0.0000    0.0000   -0.2324    0.5840   -0.0682
  Py  C    2   -0.3981    0.2362    0.0001    0.0000   -0.0001    0.0114   -0.0645   -0.0953
  Pz  C    2    0.0001   -0.0001    0.7579    0.0304   -0.6255    0.0001    0.0001    0.0000
  S   C    3    0.0197   -0.0091   -0.0000   -0.0000   -0.0000   -0.0419    0.0011   -0.0880
  Px  C    3   -0.0276    0.4084   -0.0000   -0.0000   -0.0000   -0.0328    0.0280   -0.0711
  Py  C    3    0.4425   -0.2332    0.0001   -0.0001    0.0001   -0.0282   -0.0007   -0.1018
  Pz  C    3   -0.0001    0.0000    0.5519   -0.4926    0.6681   -0.0001   -0.0000   -0.0000
  S   H    4   -0.2641    0.2584    0.0000    0.0000    0.0000    0.0803    0.0566    0.0712
  S   H    5    0.0482   -0.3202   -0.0000    0.0000    0.0000   -0.0297    0.1258    0.0097
  S   H    6   -0.2992    0.2943    0.0000   -0.0000    0.0000    0.0295   -0.0719   -0.0116
  S   H    7    0.3104    0.1971   -0.0001   -0.0000    0.0000   -0.1175    0.0452    0.7455
  S   O    8    0.0290   -0.0243   -0.0000    0.0000   -0.0000   -0.1706   -0.0888   -0.0350
  Px  O    8   -0.3425   -0.3805    0.0000    0.0001    0.0001    0.3197    0.0052    0.0880
  Py  O    8   -0.3588   -0.1293    0.0001    0.0001   -0.0001   -0.5014   -0.1949    0.0220
  Pz  O    8   -0.0002   -0.0001   -0.3129   -0.4272   -0.1562   -0.0001   -0.0001    0.0000


   Root No.      17        18        19        20

                13 a'     14 a'     15 a'     16 a'  

                -0.804    -0.168     0.317     0.509
  
  S   C    1   -0.0200   -0.0301    0.0078    0.0242
  Px  C    1   -0.0717    0.0659   -0.0391   -0.0057
  Py  C    1   -0.1490   -0.0193    0.0545   -0.0218
  Pz  C    1   -0.0000    0.0000   -0.0000   -0.0000
  S   C    2   -0.3196    0.3273   -0.2481    0.2628
  Px  C    2    0.2368   -0.0953    0.0675   -0.2240
  Py  C    2    0.5373    0.0891   -0.2394    0.2432
  Pz  C    2   -0.0000    0.0000    0.0000   -0.0000
  S   C    3    0.3221   -0.3233   -0.4084   -0.2181
  Px  C    3    0.3054   -0.3456    0.2491    0.3913
  Py  C    3    0.5072    0.2699    0.2566   -0.2541
  Pz  C    3   -0.0001   -0.0001   -0.0000    0.0000
  S   H    4   -0.2019   -0.4140    0.4075   -0.4699
  S   H    5    0.0140   -0.1342    0.5148    0.5468
  S   H    6    0.1128    0.6195    0.3809   -0.1879
  S   H    7    0.1222    0.0116   -0.0243    0.0074
  S   O    8   -0.0193   -0.0079    0.0104   -0.0040
  Px  O    8    0.0386   -0.0016    0.0003    0.0058
  Py  O    8   -0.0229   -0.0088    0.0252   -0.0111
  Pz  O    8   -0.0000   -0.0000    0.0000   -0.0000


           BETA EIGENVECTORS  


   Root No.       1         2         3         4         5         6         7         8

                 1 a'      2 a'      3 a'      4 a'      5 a'      6 a'      1 a"      7 a'  

               -38.683   -33.923   -29.808   -25.184   -23.605   -22.047   -21.414   -20.326
  
  S   C    1    0.4555    0.2508    0.5212   -0.1919    0.0165   -0.0754   -0.0000   -0.0260
  Px  C    1    0.1362   -0.2492   -0.0457   -0.3042    0.4017    0.2351    0.0000    0.2639
  Py  C    1   -0.2818    0.1138    0.2272    0.0077    0.4054   -0.3685   -0.0001    0.1947
  Pz  C    1   -0.0001    0.0000    0.0000   -0.0001    0.0001   -0.0002    0.5964   -0.0000
  S   C    2    0.1314    0.5875    0.0408    0.3936    0.0192    0.0843    0.0000    0.0408
  Px  C    2    0.0710   -0.0293    0.3302   -0.0220   -0.2773   -0.3586   -0.0001   -0.1984
  Py  C    2   -0.0512   -0.1228    0.1916    0.2412    0.3082    0.0255   -0.0001   -0.4599
  Pz  C    2    0.0000    0.0000    0.0000   -0.0000   -0.0000   -0.0001    0.2224   -0.0000
  S   C    3    0.0756    0.5099   -0.4429   -0.3046    0.0958   -0.0763   -0.0001   -0.0196
  Px  C    3    0.0445    0.1230    0.0403    0.1180   -0.3094   -0.0781    0.0001    0.5337
  Py  C    3    0.0174    0.1335   -0.0010    0.3011    0.1115    0.4015    0.0002    0.2616
  Pz  C    3   -0.0000   -0.0000    0.0000   -0.0000   -0.0000   -0.0001    0.1090   -0.0001
  S   H    4    0.0289    0.2132    0.0466    0.3121    0.2356    0.1317   -0.0000   -0.2129
  S   H    5    0.0158    0.1741   -0.2172   -0.1971    0.2325    0.0253   -0.0001   -0.3565
  S   H    6    0.0389    0.1924   -0.1944   -0.2801   -0.0879   -0.2992   -0.0001   -0.0554
  S   H    7    0.1115    0.0950    0.2979   -0.1509    0.3273   -0.1748    0.0000    0.1822
  S   O    8    0.7457   -0.2869   -0.3254    0.3070    0.1351   -0.2865   -0.0000    0.0301
  Px  O    8   -0.1519   -0.0629   -0.0762    0.0669    0.3763   -0.2286   -0.0000    0.2755
  Py  O    8    0.2597    0.0055    0.2045   -0.3513    0.0093    0.4706   -0.0001    0.0083
  Pz  O    8    0.0000   -0.0000    0.0000   -0.0001    0.0000   -0.0000    0.7635   -0.0002


   Root No.       9        10        11        12        13        14        15        16

                 8 a'      2 a"      9 a'      3 a"      4 a"     10 a'     11 a'     12 a'  

               -18.673   -16.936    -9.086    -7.094    -4.867    -3.253    -2.715    -1.851
  
  S   C    1    0.1384   -0.0000   -0.0347    0.0000   -0.0000    0.5738   -0.0086   -0.2509
  Px  C    1   -0.2068   -0.0000   -0.1471   -0.0001    0.0000   -0.1065    0.6004   -0.2984
  Py  C    1    0.0896   -0.0000   -0.1128   -0.0002    0.0001   -0.3244   -0.3794   -0.4652
  Pz  C    1   -0.0000    0.0444   -0.0001    0.7027   -0.3853   -0.0001   -0.0000   -0.0002
  S   C    2   -0.0920   -0.0000    0.1400   -0.0000   -0.0000   -0.2116    0.2298    0.0229
  Px  C    2    0.1483   -0.0001    0.3187   -0.0000   -0.0000   -0.4391    0.4452   -0.0970
  Py  C    2   -0.3840    0.0001   -0.0388    0.0000    0.0001    0.0282   -0.0688   -0.1088
  Pz  C    2    0.0001    0.7219    0.0000    0.1190    0.6444    0.0000    0.0001    0.0000
  S   C    3    0.0253   -0.0000   -0.0065   -0.0000    0.0000   -0.0382   -0.0203   -0.0955
  Px  C    3   -0.3813    0.0000   -0.0603   -0.0000    0.0000   -0.0393    0.0142   -0.0807
  Py  C    3    0.4254    0.0001   -0.0265   -0.0001   -0.0001   -0.0259   -0.0152   -0.1154
  Pz  C    3   -0.0001    0.6059    0.0000   -0.4754   -0.6286   -0.0000   -0.0000   -0.0000
  S   H    4   -0.3513    0.0000   -0.0474    0.0000   -0.0000    0.0493    0.0932    0.0675
  S   H    5    0.3073   -0.0000    0.0673   -0.0000   -0.0000   -0.0801    0.1141    0.0038
  S   H    6   -0.3975    0.0000   -0.0384   -0.0000   -0.0000    0.0567   -0.0592   -0.0128
  S   H    7    0.0588   -0.0000   -0.3079   -0.0000   -0.0000   -0.1803    0.0240    0.7383
  S   O    8    0.0574   -0.0000   -0.0016    0.0000    0.0000   -0.1466   -0.1795   -0.0462
  Px  O    8   -0.0288    0.0000    0.7362    0.0001   -0.0001    0.3376    0.0736    0.1651
  Py  O    8   -0.2043    0.0001    0.4386    0.0001    0.0000   -0.3635   -0.4190    0.0411
  Pz  O    8   -0.0001   -0.3314    0.0002   -0.5158    0.2030   -0.0000   -0.0001    0.0000


   Root No.      17        18        19        20

                13 a'     14 a'     15 a'     16 a'  

                -0.767    -0.164     0.324     0.513
  
  S   C    1   -0.0174   -0.0301    0.0071    0.0258
  Px  C    1   -0.0758    0.0710   -0.0492   -0.0021
  Py  C    1   -0.1651   -0.0211    0.0577   -0.0231
  Pz  C    1   -0.0000    0.0000   -0.0000   -0.0000
  S   C    2   -0.3269    0.3240   -0.2539    0.2634
  Px  C    2    0.2350   -0.0824    0.0568   -0.2246
  Py  C    2    0.5328    0.0836   -0.2393    0.2563
  Pz  C    2   -0.0000    0.0000    0.0000   -0.0000
  S   C    3    0.3204   -0.3332   -0.4035   -0.2045
  Px  C    3    0.3008   -0.3354    0.2640    0.3881
  Py  C    3    0.5046    0.2780    0.2402   -0.2523
  Pz  C    3   -0.0001   -0.0001   -0.0000    0.0000
  S   H    4   -0.1884   -0.4023    0.4086   -0.4800
  S   H    5    0.0098   -0.1179    0.5298    0.5371
  S   H    6    0.1158    0.6308    0.3597   -0.1947
  S   H    7    0.1380    0.0093   -0.0225    0.0079
  S   O    8   -0.0273   -0.0108    0.0151   -0.0058
  Px  O    8    0.0585   -0.0027    0.0038    0.0018
  Py  O    8   -0.0251   -0.0136    0.0346   -0.0166
  Pz  O    8   -0.0000   -0.0000    0.0000   -0.0000


              NET ATOMIC CHARGES AND DIPOLE CONTRIBUTIONS

  ATOM NO.   TYPE          CHARGE      No. of ELECS.   s-Pop       p-Pop       
    1          C           0.197749        3.8023     1.18915     2.61310
    2          C          -0.270377        4.2704     1.08847     3.18191
    3          C          -0.018492        4.0185     1.13853     2.87997
    4          H           0.226291        0.7737     0.77371
    5          H           0.206117        0.7939     0.79388
    6          H           0.170007        0.8300     0.82999
    7          H           0.279999        0.7200     0.72000
    8          O           0.208708        5.7913     1.90425     3.88704
 DIPOLE           X         Y         Z       TOTAL
 POINT-CHG.     0.209     1.294     0.001     1.311
 HYBRID         0.515    -0.313     0.000     0.602
 SUM            0.724     0.981     0.001     1.219


          ATOMIC ORBITAL ELECTRON POPULATIONS

     Atom    s        px        py        pz   
    1  C   1.18915   1.00765   0.95963   0.64582
    2  C   1.08847   0.86269   1.14081   1.17840
    3  C   1.13853   1.12994   1.06012   0.68991
    4  H   0.77371
    5  H   0.79388
    6  H   0.82999
    7  H   0.72000
    8  O   1.90425   1.19640   1.20478   1.48587


                    (SZ)    =    0.500000
                    (S**2)  =    0.774533


          ATOMIC ORBITAL SPIN POPULATIONS

    Atom   Total    s     px     py     pz   
         Atomic
    1  C -0.1114 -0.020 -0.001 -0.021 -0.070
    2  C  0.1568  0.015  0.098  0.006  0.037
    3  C -0.0735 -0.003  0.000 -0.003 -0.068
    4  H -0.0011 -0.001
    5  H  0.0082  0.008
    6  H  0.0039  0.004
    7  H  0.1054  0.105
    8  O  0.9119  0.018  0.581  0.213  0.100

 **********************
 *                    *
 * JOB ENDED NORMALLY *
 *                    *
 **********************



 TOTAL JOB TIME:             0.06 SECONDS

 == MOPAC DONE ==
