 *******************************************************************************
 ** Site#: 29116        For non-commercial use only    Version 19.206L 64BITS **
 *******************************************************************************
 ** Cite this program as: MOPAC2016, Version: 19.206L, James J. P. Stewart,   **
 ** Stewart Computational Chemistry, web-site: HTTP://OpenMOPAC.net.          **
 *******************************************************************************
 **                                                                           **
 **                                MOPAC2016                                  **
 **                                                                           **
 *******************************************************************************

                              PM7 CALCULATION RESULTS

 *******************************************************************************
 *  CALCULATION DONE:                                Tue Apr  7 17:36:48 2020  *
 *  PM7        - The PM7 Hamiltonian to be used
 *  SINGLET    - SPIN STATE DEFINED AS A SINGLET
 *
 *
 *
 *                 CHARGE ON SYSTEM = 0
 *
 *
 *
 *  1SCF       - DO 1 SCF AND THEN STOP 
 *  T=         - A TIME OF 172800.0 SECONDS REQUESTED
 *  DUMP=N     - RESTART FILE WRITTEN EVERY  7200.000 SECONDS
 *  AUX        - OUTPUT AUXILIARY INFORMATION
 *  VECTORS    - FINAL EIGENVECTORS TO BE PRINTED
 *  LARGE      - EXPANDED OUTPUT TO BE PRINTED
 *  ALLVEC     - PRINT ALL EIGENVECTORS
 *******************************************************************************
PM7 1SCF CHARGE=0 Singlet AUX vectors large allvectors

 Mopac file generated by Gabedit
   ATOM   CHEMICAL          X               Y               Z
  NUMBER   SYMBOL      (ANGSTROMS)     (ANGSTROMS)     (ANGSTROMS)
 
     1       C          0.81130000  *   0.46470000  *   0.00010000  *
     2       C         -0.66700000  *   0.60270000  *  -0.00010000  *
     3       C         -1.46850000  *  -0.46860000  *   0.00000000  *
     4       H         -1.06750000  *   1.61470000  *  -0.00020000  *
     5       H         -2.55090000  *  -0.38160000  *   0.00000000  *
     6       H         -1.04090000  *  -1.46780000  *   0.00020000  *
     7       H          1.37410000  *   1.42320000  *   0.00040000  *
     8       O          1.40380000  *  -0.59770000  *  -0.00010000  *
 


          CARTESIAN COORDINATES 

    NO.       ATOM           X           Y           Z

     1         C          0.8113      0.4647      0.0001
     2         C         -0.6670      0.6027     -0.0001
     3         C         -1.4685     -0.4686      0.0000
     4         H         -1.0675      1.6147     -0.0002
     5         H         -2.5509     -0.3816      0.0000
     6         H         -1.0409     -1.4678      0.0002
     7         H          1.3741      1.4232      0.0004
     8         O          1.4038     -0.5977     -0.0001

 General Reference for PM7:
 "Optimization of Parameters for Semiempirical Methods VI: More Modifications to the 
 NDDO Approximations and Re-optimization of Parameters", J. J. P. Stewart, J. Mol. Mod., 1:32, 19 (2013)
 http://www.springerlink.com/openurl.asp?genre=article&id=doi:10.1007/s00894-012-1667-x

           Empirical Formula: C3 H4 O  =     8 atoms



      MOLECULAR POINT GROUP   :   Cs  


 SINGLET STATE CALCULATION


      RHF CALCULATION, NO. OF DOUBLY OCCUPIED LEVELS = 11


 -------------------------------------------------------------------------------
 PM7 1SCF CHARGE=0 Singlet AUX vectors large allvectors

 Mopac file generated by Gabedit


     1SCF WAS SPECIFIED, SO BFGS WAS NOT USED                 
     SCF FIELD WAS ACHIEVED                                   


                              PM7 CALCULATION
                                                       MOPAC2016 (Version: 19.206L)
                                                       Tue Apr  7 17:36:48 2020




          FINAL HEAT OF FORMATION =        -14.35923 KCAL/MOL =     -60.07901 KJ/MOL


          TOTAL ENERGY            =       -716.75006 EV
          ELECTRONIC ENERGY       =      -2024.11734 EV  POINT GROUP:     Cs  
          CORE-CORE REPULSION     =       1307.36728 EV
          COSMO AREA              =         96.32 SQUARE ANGSTROMS
          COSMO VOLUME            =         79.55 CUBIC ANGSTROMS

          IONIZATION POTENTIAL    =         10.257257 EV
          HOMO LUMO ENERGIES (EV) =        -10.257 -0.376
          NO. OF FILLED LEVELS    =         11
          MOLECULAR WEIGHT        =         56.0640

          MOLECULAR DIMENSIONS (Angstroms)

            Atom       Atom       Distance
            H     7    H     5     4.32006
            O     8    H     4     3.04252
            H     6    H     4     0.00054


          SCF CALCULATIONS        =          1
 
          WALL-CLOCK TIME         =          0.035 SECONDS
          COMPUTATION TIME        =          0.024 SECONDS




   ATOM   CHEMICAL          X               Y               Z
  NUMBER   SYMBOL      (ANGSTROMS)     (ANGSTROMS)     (ANGSTROMS)
 
     1       C          0.81130000  *   0.46470000  *   0.00010000  *
     2       C         -0.66700000  *   0.60270000  *  -0.00010000  *
     3       C         -1.46850000  *  -0.46860000  *   0.00000000  *
     4       H         -1.06750000  *   1.61470000  *  -0.00020000  *
     5       H         -2.55090000  *  -0.38160000  *   0.00000000  *
     6       H         -1.04090000  *  -1.46780000  *   0.00020000  *
     7       H          1.37410000  *   1.42320000  *   0.00040000  *
     8       O          1.40380000  *  -0.59770000  *  -0.00010000  *

                             CARTESIAN COORDINATES

   1    C        0.811300000     0.464700000     0.000100000
   2    C       -0.667000000     0.602700000    -0.000100000
   3    C       -1.468500000    -0.468600000     0.000000000
   4    H       -1.067500000     1.614700000    -0.000200000
   5    H       -2.550900000    -0.381600000     0.000000000
   6    H       -1.040900000    -1.467800000     0.000200000
   7    H        1.374100000     1.423200000     0.000400000
   8    O        1.403800000    -0.597700000    -0.000100000


           Empirical Formula: C3 H4 O  =     8 atoms



      MOLECULAR POINT GROUP   :   Cs  


                EIGENVECTORS  


   Root No.       1         2         3         4         5         6         7         8

                 1 a'      2 a'      3 a'      4 a'      5 a'      6 a'      7 a'      1 a"  

               -30.843   -27.642   -23.316   -19.003   -17.502   -15.172   -14.461   -14.210
  
  S   C    1    0.4725    0.1506    0.4869   -0.2662   -0.0172    0.0106   -0.0418    0.0001
  Px  C    1    0.1095   -0.2437   -0.1011   -0.2014   -0.3814    0.2542    0.2192   -0.0004
  Py  C    1   -0.2568    0.1300    0.2492   -0.1003   -0.2867   -0.2722    0.3229   -0.0005
  Pz  C    1   -0.0001    0.0000    0.0000   -0.0001   -0.0001    0.0000    0.0008    0.5791
  S   C    2    0.1932    0.5750    0.1418    0.3771    0.0225   -0.0007    0.0345   -0.0000
  Px  C    2    0.0752   -0.0665    0.3358   -0.1435    0.3066   -0.3292   -0.1590    0.0002
  Py  C    2   -0.0615   -0.1126    0.2040    0.2278   -0.3441   -0.2730   -0.3077    0.0004
  Pz  C    2    0.0000    0.0000    0.0000   -0.0001    0.0000   -0.0000    0.0004    0.2970
  S   C    3    0.1231    0.5293   -0.4293   -0.2677   -0.0646   -0.0323    0.0323   -0.0001
  Px  C    3    0.0578    0.1019    0.0817    0.1187    0.3993    0.0945    0.5010   -0.0006
  Py  C    3    0.0302    0.1369    0.0373    0.3606   -0.1386    0.4483    0.0819   -0.0000
  Pz  C    3   -0.0000   -0.0000   -0.0000   -0.0001    0.0000   -0.0001    0.0002    0.1770
  S   H    4    0.0527    0.2273    0.1020    0.3437   -0.2625   -0.0984   -0.1410    0.0002
  S   H    5    0.0329    0.2029   -0.2446   -0.1933   -0.2932   -0.0671   -0.3466    0.0004
  S   H    6    0.0587    0.2002   -0.2031   -0.2987    0.1443   -0.2803    0.0887   -0.0001
  S   H    7    0.1308    0.0635    0.3044   -0.2369   -0.2915   -0.0855    0.2641   -0.0003
  S   O    8    0.7147   -0.3228   -0.3092    0.2817   -0.0704   -0.3228    0.1557   -0.0001
  Px  O    8   -0.1595   -0.0294   -0.0559    0.0390   -0.3137   -0.1590    0.4608   -0.0006
  Py  O    8    0.2682   -0.0447    0.1444   -0.2576   -0.1111    0.4876   -0.1086   -0.0001
  Pz  O    8    0.0001   -0.0000    0.0000   -0.0001   -0.0000    0.0002    0.0008    0.7383


   Root No.       9        10        11        12        13        14        15        16

                 8 a'      2 a"      9 a'      3 a"      4 a"     10 a'     11 a'     12 a'  

               -12.982   -11.100   -10.257    -0.376     1.442     3.540     4.624     4.752
  
  S   C    1    0.1135   -0.0000   -0.0232   -0.0000    0.0000   -0.4982    0.0126    0.4199
  Px  C    1   -0.2078    0.0000   -0.1964    0.0001   -0.0001    0.4454    0.0535    0.5180
  Py  C    1    0.1746   -0.0000   -0.1268    0.0001   -0.0002   -0.0118    0.4694   -0.1024
  Pz  C    1   -0.0000   -0.0681   -0.0001   -0.4924    0.6462    0.0001    0.0002    0.0000
  S   C    2   -0.0512   -0.0000    0.1289    0.0000    0.0000    0.2668   -0.0452   -0.0532
  Px  C    2    0.1855   -0.0001    0.3365    0.0000    0.0000    0.5865    0.1052    0.1553
  Py  C    2   -0.3798    0.0001   -0.0428   -0.0001   -0.0001   -0.0312    0.4309   -0.0508
  Pz  C    2    0.0001    0.6716    0.0000   -0.4314   -0.5241    0.0001   -0.0001    0.0000
  S   C    3    0.0145   -0.0000   -0.0097   -0.0000   -0.0000    0.0179    0.1808   -0.0013
  Px  C    3   -0.2889    0.0000   -0.1013   -0.0000   -0.0000    0.1285    0.1153    0.1254
  Py  C    3    0.4060    0.0001   -0.0216    0.0001    0.0000    0.0253    0.3492    0.0358
  Pz  C    3   -0.0001    0.6385    0.0000    0.6370    0.3940   -0.0000   -0.0000   -0.0000
  S   H    4   -0.3673    0.0000   -0.0663   -0.0000    0.0000    0.0269   -0.3660    0.1796
  S   H    5    0.2623   -0.0000    0.0934    0.0000    0.0000    0.1812   -0.0606    0.1302
  S   H    6   -0.3664    0.0000   -0.0501    0.0000    0.0000   -0.0856    0.1820   -0.0349
  S   H    7    0.1168   -0.0001   -0.3164    0.0000    0.0000    0.2087   -0.3988   -0.4763
  S   O    8    0.1361   -0.0000    0.0000   -0.0000   -0.0000    0.0006    0.1134   -0.1524
  Px  O    8    0.0050    0.0000    0.7130   -0.0001    0.0001   -0.1762   -0.1854    0.1282
  Py  O    8   -0.3370    0.0001    0.4221   -0.0001    0.0001    0.0647    0.1817   -0.4258
  Pz  O    8   -0.0002   -0.3698    0.0002    0.4070   -0.3905   -0.0000    0.0000   -0.0001


   Root No.      17        18        19        20

                13 a'     14 a'     15 a'     16 a'  

                 5.336     5.453     5.734     5.982
  
  S   C    1   -0.0292   -0.0065   -0.0238   -0.0664
  Px  C    1    0.0294   -0.2470   -0.0810   -0.0073
  Py  C    1    0.5060    0.0863   -0.0771    0.1937
  Pz  C    1    0.0001   -0.0000   -0.0000    0.0000
  S   C    2    0.0899   -0.3945   -0.4333   -0.1456
  Px  C    2   -0.0768    0.0017    0.2845    0.1235
  Py  C    2   -0.3455    0.0297    0.0494   -0.3799
  Pz  C    2   -0.0000   -0.0000   -0.0000    0.0000
  S   C    3    0.0491   -0.0817    0.5565   -0.3006
  Px  C    3   -0.0693    0.5789   -0.0487   -0.2542
  Py  C    3   -0.4313    0.0707    0.1741    0.3340
  Pz  C    3    0.0001    0.0000   -0.0000   -0.0001
  S   H    4    0.2128    0.2594    0.3581    0.4142
  S   H    5   -0.0591    0.5747   -0.4275   -0.0488
  S   H    6   -0.4023   -0.1052   -0.2341    0.5591
  S   H    7   -0.3320    0.0401    0.0835   -0.0781
  S   O    8    0.1277    0.0540   -0.0057    0.0527
  Px  O    8   -0.1937   -0.0103    0.0246   -0.0666
  Py  O    8    0.2025    0.1220    0.0027    0.1040
  Pz  O    8    0.0000    0.0000    0.0000    0.0000


              NET ATOMIC CHARGES AND DIPOLE CONTRIBUTIONS

  ATOM NO.   TYPE          CHARGE      No. of ELECS.   s-Pop       p-Pop       
    1          C           0.332945        3.6671     1.13890     2.52815
    2          C          -0.305855        4.3059     1.10258     3.20328
    3          C          -0.175260        4.1753     1.11569     3.05958
    4          H           0.158601        0.8414     0.84140
    5          H           0.144865        0.8551     0.85513
    6          H           0.163999        0.8360     0.83600
    7          H           0.108596        0.8914     0.89140
    8          O          -0.427891        6.4279     1.88379     4.54410
 DIPOLE           X         Y         Z       TOTAL
 POINT-CHG.    -2.063     2.031     0.001     2.895
 HYBRID        -0.020    -0.208    -0.000     0.209
 SUM           -2.083     1.823     0.001     2.768


          ATOMIC ORBITAL ELECTRON POPULATIONS

     Atom    s        px        py        pz   
    1  C   1.13890   0.92396   0.92422   0.67998
    2  C   1.10258   1.03751   1.08740   1.07836
    3  C   1.11569   1.09509   1.08653   0.87795
    4  H   0.84140
    5  H   0.85513
    6  H   0.83600
    7  H   0.89140
    8  O   1.88379   1.75089   1.42950   1.36371

 **********************
 *                    *
 * JOB ENDED NORMALLY *
 *                    *
 **********************



 TOTAL JOB TIME:             0.07 SECONDS

 == MOPAC DONE ==
