 *******************************************************************************
 ** Site#: 29116        For non-commercial use only    Version 19.206L 64BITS **
 *******************************************************************************
 ** Cite this program as: MOPAC2016, Version: 19.206L, James J. P. Stewart,   **
 ** Stewart Computational Chemistry, web-site: HTTP://OpenMOPAC.net.          **
 *******************************************************************************
 **                                                                           **
 **                                MOPAC2016                                  **
 **                                                                           **
 *******************************************************************************

                              PM7 CALCULATION RESULTS

 *******************************************************************************
 *  CALCULATION DONE:                                Tue Apr  7 17:36:44 2020  *
 *  PM7        - The PM7 Hamiltonian to be used
 *  DOUBLET    - SPIN STATE DEFINED AS A DOUBLET
 *
 *
 *
 *                 CHARGE ON SYSTEM = -1
 *
 *
 *
 *  1SCF       - DO 1 SCF AND THEN STOP 
 *  T=         - A TIME OF 172800.0 SECONDS REQUESTED
 *  DUMP=N     - RESTART FILE WRITTEN EVERY  7200.000 SECONDS
 *  AUX        - OUTPUT AUXILIARY INFORMATION
 *  VECTORS    - FINAL EIGENVECTORS TO BE PRINTED
 *  LARGE      - EXPANDED OUTPUT TO BE PRINTED
 *  ALLVEC     - PRINT ALL EIGENVECTORS
 *******************************************************************************
PM7 1SCF CHARGE=-1 Doublet vectors large allvectors AUX

 Mopac file generated by Gabedit
   ATOM   CHEMICAL          X               Y               Z
  NUMBER   SYMBOL      (ANGSTROMS)     (ANGSTROMS)     (ANGSTROMS)
 
     1       C          0.81130000  *   0.46470000  *   0.00010000  *
     2       C         -0.66700000  *   0.60270000  *  -0.00010000  *
     3       C         -1.46850000  *  -0.46860000  *   0.00000000  *
     4       H         -1.06750000  *   1.61470000  *  -0.00020000  *
     5       H         -2.55090000  *  -0.38160000  *   0.00000000  *
     6       H         -1.04090000  *  -1.46780000  *   0.00020000  *
     7       H          1.37410000  *   1.42320000  *   0.00040000  *
     8       O          1.40380000  *  -0.59770000  *  -0.00010000  *
 


          CARTESIAN COORDINATES 

    NO.       ATOM           X           Y           Z

     1         C          0.8113      0.4647      0.0001
     2         C         -0.6670      0.6027     -0.0001
     3         C         -1.4685     -0.4686      0.0000
     4         H         -1.0675      1.6147     -0.0002
     5         H         -2.5509     -0.3816      0.0000
     6         H         -1.0409     -1.4678      0.0002
     7         H          1.3741      1.4232      0.0004
     8         O          1.4038     -0.5977     -0.0001

 General Reference for PM7:
 "Optimization of Parameters for Semiempirical Methods VI: More Modifications to the 
 NDDO Approximations and Re-optimization of Parameters", J. J. P. Stewart, J. Mol. Mod., 1:32, 19 (2013)
 http://www.springerlink.com/openurl.asp?genre=article&id=doi:10.1007/s00894-012-1667-x

           Empirical Formula: C3 H4 O  =     8 atoms



      MOLECULAR POINT GROUP   :   Cs  


 DOUBLET STATE CALCULATION


          UHF CALCULATION, NO. OF ALPHA ELECTRONS =   12
                           NO. OF BETA  ELECTRONS =   11

 -------------------------------------------------------------------------------
 PM7 1SCF CHARGE=-1 Doublet vectors large allvectors AUX

 Mopac file generated by Gabedit


     1SCF WAS SPECIFIED, SO BFGS WAS NOT USED                 
     SCF FIELD WAS ACHIEVED                                   


                              PM7 CALCULATION
                                                       MOPAC2016 (Version: 19.206L)
                                                       Tue Apr  7 17:36:44 2020




          FINAL HEAT OF FORMATION =        -30.39860 KCAL/MOL =    -127.18774 KJ/MOL


          TOTAL ENERGY            =       -717.44559 EV
          ELECTRONIC ENERGY       =      -2024.81287 EV  POINT GROUP:     Cs  
          CORE-CORE REPULSION     =       1307.36728 EV
          COSMO AREA              =         96.32 SQUARE ANGSTROMS
          COSMO VOLUME            =         79.55 CUBIC ANGSTROMS

          IONIZATION POTENTIAL    =          1.008094 EV
          ALPHA SOMO LUMO (EV)    =         -1.008  7.077
          BETA  SOMO LUMO (EV)    =         -3.715  6.767
          NO. OF ALPHA ELECTRONS  =         12
          NO. OF BETA  ELECTRONS  =         11
          MOLECULAR WEIGHT        =         56.0640

          MOLECULAR DIMENSIONS (Angstroms)

            Atom       Atom       Distance
            H     7    H     5     4.32006
            O     8    H     4     3.04252
            H     6    H     4     0.00054


          SCF CALCULATIONS        =          1
 
          WALL-CLOCK TIME         =          0.039 SECONDS
          COMPUTATION TIME        =          0.031 SECONDS




   ATOM   CHEMICAL          X               Y               Z
  NUMBER   SYMBOL      (ANGSTROMS)     (ANGSTROMS)     (ANGSTROMS)
 
     1       C          0.81130000  *   0.46470000  *   0.00010000  *
     2       C         -0.66700000  *   0.60270000  *  -0.00010000  *
     3       C         -1.46850000  *  -0.46860000  *   0.00000000  *
     4       H         -1.06750000  *   1.61470000  *  -0.00020000  *
     5       H         -2.55090000  *  -0.38160000  *   0.00000000  *
     6       H         -1.04090000  *  -1.46780000  *   0.00020000  *
     7       H          1.37410000  *   1.42320000  *   0.00040000  *
     8       O          1.40380000  *  -0.59770000  *  -0.00010000  *

                             CARTESIAN COORDINATES

   1    C        0.811300000     0.464700000     0.000100000
   2    C       -0.667000000     0.602700000    -0.000100000
   3    C       -1.468500000    -0.468600000     0.000000000
   4    H       -1.067500000     1.614700000    -0.000200000
   5    H       -2.550900000    -0.381600000     0.000000000
   6    H       -1.040900000    -1.467800000     0.000200000
   7    H        1.374100000     1.423200000     0.000400000
   8    O        1.403800000    -0.597700000    -0.000100000


           Empirical Formula: C3 H4 O  =     8 atoms



      MOLECULAR POINT GROUP   :   Cs  


          ALPHA EIGENVECTORS  


   Root No.       1         2         3         4         5         6         7         8

                 1 a'      2 a'      3 a'      4 a'      5 a'      6 a'      1 a"      7 a'  

               -23.817   -20.471   -16.572   -12.482   -11.030    -8.552    -8.061    -7.932
  
  S   C    1    0.4652    0.1863    0.4659   -0.2562    0.0105    0.0124   -0.0001   -0.0563
  Px  C    1    0.1197   -0.2459   -0.0745   -0.2047   -0.3760    0.2254    0.0004    0.2376
  Py  C    1   -0.2536    0.1378    0.2581   -0.1165   -0.2766   -0.2965    0.0004    0.2655
  Pz  C    1   -0.0000    0.0000    0.0000   -0.0001   -0.0001   -0.0000    0.5584   -0.0010
  S   C    2    0.1769    0.5813    0.1098    0.3615    0.0340    0.0010    0.0001    0.0471
  Px  C    2    0.0771   -0.0521    0.3243   -0.1367    0.3024   -0.3027   -0.0005   -0.2156
  Py  C    2   -0.0536   -0.0867    0.2082    0.2326   -0.3363   -0.2258   -0.0007   -0.3337
  Pz  C    2    0.0000    0.0000    0.0000   -0.0001    0.0000   -0.0000    0.2959   -0.0006
  S   C    3    0.1055    0.5045   -0.4448   -0.2639   -0.0520   -0.0229    0.0001    0.0501
  Px  C    3    0.0538    0.0946    0.0851    0.1247    0.4029    0.0280    0.0010    0.5096
  Py  C    3    0.0262    0.1364    0.0364    0.3513   -0.1372    0.4405    0.0004    0.1465
  Pz  C    3   -0.0000   -0.0000   -0.0000   -0.0001    0.0000   -0.0001    0.1723   -0.0004
  S   H    4    0.0511    0.2549    0.0945    0.3612   -0.2680   -0.0791   -0.0003   -0.1473
  S   H    5    0.0288    0.2085   -0.2684   -0.2048   -0.2991   -0.0135   -0.0007   -0.3522
  S   H    6    0.0540    0.1984   -0.2178   -0.2942    0.1530   -0.2870    0.0001    0.0661
  S   H    7    0.1391    0.0862    0.3247   -0.2598   -0.2893   -0.1199    0.0005    0.2457
  S   O    8    0.7233   -0.3131   -0.2937    0.2748   -0.0865   -0.3387    0.0003    0.1175
  Px  O    8   -0.1587   -0.0381   -0.0450    0.0279   -0.3289   -0.2066    0.0008    0.4459
  Py  O    8    0.2757   -0.0326    0.1473   -0.2530   -0.0920    0.5125   -0.0003   -0.0556
  Pz  O    8    0.0001   -0.0000    0.0000   -0.0001   -0.0000    0.0001    0.7556   -0.0015


   Root No.       9        10        11        12        13        14        15        16

                 8 a'      2 a"      9 a'      3 a"      4 a"     10 a'     11 a'     12 a'  

                -6.551    -5.062    -3.903    -1.008     7.077    10.488    10.974    11.196
  
  S   C    1    0.1121   -0.0000    0.0047   -0.0000    0.0000   -0.5163   -0.0896    0.3505
  Px  C    1   -0.2122   -0.0000   -0.2154    0.0001   -0.0001    0.2921   -0.4759    0.2986
  Py  C    1    0.1682   -0.0000   -0.1060    0.0001   -0.0002   -0.1930   -0.3843   -0.1818
  Pz  C    1   -0.0000    0.0178   -0.0001   -0.4859    0.6721    0.0000   -0.0002   -0.0000
  S   C    2   -0.0329   -0.0000    0.1255    0.0000    0.0000    0.1898   -0.0917   -0.1549
  Px  C    2    0.1760   -0.0000    0.3384    0.0000    0.0000    0.5280   -0.2828    0.0530
  Py  C    2   -0.3651    0.0001   -0.0410   -0.0001   -0.0001   -0.0887   -0.2497   -0.3905
  Pz  C    2    0.0001    0.5521    0.0000   -0.4844   -0.6107    0.0001    0.0000    0.0001
  S   C    3    0.0110   -0.0000   -0.0114    0.0000   -0.0000   -0.0297   -0.0620   -0.0683
  Px  C    3   -0.2658   -0.0000   -0.1008   -0.0000   -0.0000    0.1882   -0.1980    0.0832
  Py  C    3    0.4180    0.0001   -0.0185    0.0001    0.0000   -0.0167   -0.2172   -0.1919
  Pz  C    3   -0.0001    0.7332   -0.0000    0.5994    0.2709   -0.0000    0.0000    0.0000
  S   H    4   -0.3772    0.0000   -0.0769   -0.0000    0.0000    0.1208    0.1964    0.4929
  S   H    5    0.2562   -0.0000    0.0970    0.0000    0.0000    0.2577   -0.1365    0.1510
  S   H    6   -0.3683    0.0000   -0.0534    0.0000    0.0000   -0.1154   -0.0926   -0.2048
  S   H    7    0.1239   -0.0001   -0.3294    0.0000    0.0000    0.3841    0.5338   -0.2365
  S   O    8    0.1399   -0.0000    0.0045   -0.0000   -0.0000   -0.0232   -0.0235   -0.1385
  Px  O    8   -0.0093    0.0000    0.7112   -0.0000    0.0001   -0.0822    0.1512    0.1547
  Py  O    8   -0.3531    0.0002    0.4091   -0.0001    0.0001    0.0496    0.0520   -0.3471
  Pz  O    8   -0.0002   -0.3965    0.0002    0.4122   -0.3193   -0.0000    0.0000   -0.0001


   Root No.      17        18        19        20

                13 a'     14 a'     15 a'     16 a'  

                11.887    11.938    12.328    12.901
  
  S   C    1   -0.1564    0.1328   -0.0674    0.0775
  Px  C    1   -0.2621   -0.2069   -0.1300   -0.0911
  Py  C    1    0.5254   -0.1745    0.1026   -0.1641
  Pz  C    1    0.0001   -0.0001    0.0000   -0.0000
  S   C    2   -0.1455   -0.2047   -0.4669   -0.3441
  Px  C    2   -0.0933   -0.1737    0.2725    0.1335
  Py  C    2   -0.2131    0.2250   -0.1175    0.3863
  Pz  C    2   -0.0000   -0.0000    0.0000   -0.0000
  S   C    3    0.0026   -0.2969    0.0671    0.5991
  Px  C    3    0.2394    0.4913   -0.0776    0.2748
  Py  C    3   -0.2616    0.1748    0.5122    0.0323
  Pz  C    3    0.0001   -0.0000   -0.0001    0.0000
  S   H    4    0.2247   -0.0888    0.4364   -0.0142
  S   H    5    0.2237    0.5948   -0.1433   -0.1443
  S   H    6   -0.3268    0.1969    0.4037   -0.4502
  S   H    7   -0.1225    0.0999    0.0168    0.0662
  S   O    8    0.1905   -0.0349    0.0481   -0.0365
  Px  O    8   -0.2090    0.1107   -0.0318    0.0674
  Py  O    8    0.3569   -0.0495    0.1079   -0.0625
  Pz  O    8    0.0001    0.0000    0.0000   -0.0000


           BETA EIGENVECTORS  


   Root No.       1         2         3         4         5         6         7         8

                 1 a'      2 a'      3 a'      4 a'      5 a'      6 a'      7 a'      1 a"  

               -23.230   -20.268   -16.305   -12.307   -10.918    -8.329    -7.800    -7.283
  
  S   C    1    0.4950    0.1347    0.4500   -0.2539    0.0152    0.0160   -0.0601    0.0000
  Px  C    1    0.1090   -0.2557   -0.0848   -0.1912   -0.3795    0.2348    0.2195   -0.0002
  Py  C    1   -0.2479    0.1541    0.2778   -0.1393   -0.2662   -0.2546    0.2871   -0.0003
  Pz  C    1   -0.0001    0.0000    0.0000   -0.0001   -0.0001    0.0000    0.0004    0.5799
  S   C    2    0.2149    0.5751    0.1183    0.3536    0.0379    0.0024    0.0506   -0.0000
  Px  C    2    0.0808   -0.0681    0.3226   -0.1416    0.3108   -0.3133   -0.1980    0.0001
  Py  C    2   -0.0596   -0.0848    0.2169    0.2341   -0.3394   -0.2673   -0.3169    0.0002
  Pz  C    2    0.0000    0.0000    0.0000   -0.0001    0.0000   -0.0000    0.0002    0.3052
  S   C    3    0.1308    0.4967   -0.4309   -0.2636   -0.0526   -0.0171    0.0493   -0.0001
  Px  C    3    0.0616    0.0905    0.0832    0.1215    0.3982    0.0632    0.4925   -0.0003
  Py  C    3    0.0341    0.1375    0.0390    0.3461   -0.1330    0.4482    0.1155   -0.0000
  Pz  C    3   -0.0000   -0.0000   -0.0000   -0.0001    0.0000   -0.0001    0.0001    0.1620
  S   H    4    0.0664    0.2556    0.1054    0.3607   -0.2711   -0.1064   -0.1392    0.0001
  S   H    5    0.0385    0.2113   -0.2685   -0.2110   -0.3061   -0.0380   -0.3558    0.0002
  S   H    6    0.0652    0.1972   -0.2197   -0.3022    0.1529   -0.2925    0.0844   -0.0001
  S   H    7    0.1542    0.0681    0.3293   -0.2713   -0.2863   -0.0896    0.2588   -0.0001
  S   O    8    0.6790   -0.3443   -0.3089    0.2833   -0.0910   -0.3446    0.1574   -0.0000
  Px  O    8   -0.1660   -0.0226   -0.0358    0.0191   -0.3211   -0.1706    0.4566   -0.0003
  Py  O    8    0.2843   -0.0611    0.1314   -0.2354   -0.0925    0.5009   -0.1092   -0.0002
  Pz  O    8    0.0001   -0.0000    0.0000   -0.0001   -0.0000    0.0002    0.0004    0.7378


   Root No.       9        10        11        12        13        14        15        16

                 8 a'      2 a"      9 a'      3 a"      4 a"     10 a'     11 a'     12 a'  

                -6.431    -4.032    -3.715     6.767     8.414    10.491    11.046    11.304
  
  S   C    1    0.1085   -0.0000    0.0039   -0.0000    0.0000   -0.5147   -0.1042    0.3153
  Px  C    1   -0.2196    0.0000   -0.2002    0.0001   -0.0001    0.3126   -0.5025    0.2314
  Py  C    1    0.1673   -0.0000   -0.0978    0.0001   -0.0002   -0.1974   -0.3808   -0.0863
  Pz  C    1   -0.0000   -0.0560   -0.0001   -0.5301    0.6162    0.0000   -0.0002   -0.0000
  S   C    2   -0.0258   -0.0000    0.1277    0.0000    0.0000    0.1998   -0.1170   -0.2101
  Px  C    2    0.1834   -0.0001    0.3397    0.0000    0.0000    0.5264   -0.2677    0.0486
  Py  C    2   -0.3516    0.0001   -0.0390   -0.0000   -0.0001   -0.0978   -0.2256   -0.4361
  Pz  C    2    0.0001    0.7175    0.0000   -0.3475   -0.5209    0.0001    0.0000    0.0001
  S   C    3    0.0083   -0.0000   -0.0097   -0.0000   -0.0000   -0.0308   -0.0489   -0.0500
  Px  C    3   -0.2689    0.0000   -0.0930   -0.0000   -0.0000    0.1798   -0.1802    0.0973
  Py  C    3    0.4031    0.0001   -0.0183    0.0001    0.0000   -0.0251   -0.1962   -0.2105
  Pz  C    3   -0.0001    0.5809    0.0000    0.6513    0.4606   -0.0000    0.0000    0.0000
  S   H    4   -0.3664    0.0000   -0.0746   -0.0000    0.0000    0.1232    0.1967    0.5588
  S   H    5    0.2680   -0.0000    0.0966    0.0000    0.0000    0.2435   -0.1260    0.1457
  S   H    6   -0.3761    0.0000   -0.0531    0.0000   -0.0000   -0.1153   -0.0857   -0.2333
  S   H    7    0.1221   -0.0000   -0.3291    0.0000    0.0000    0.3750    0.5398   -0.2427
  S   O    8    0.1559   -0.0000    0.0048   -0.0000   -0.0000   -0.0281   -0.0176   -0.1072
  Px  O    8   -0.0032    0.0000    0.7160   -0.0001    0.0001   -0.0844    0.1519    0.1161
  Py  O    8   -0.3639    0.0001    0.4116   -0.0001    0.0001    0.0405    0.0730   -0.2734
  Pz  O    8   -0.0002   -0.3803    0.0002    0.4173   -0.3699   -0.0000    0.0001   -0.0000


   Root No.      17        18        19        20

                13 a'     14 a'     15 a'     16 a'  

                12.047    12.127    12.458    13.179
  
  S   C    1    0.0578   -0.2418   -0.1139    0.0637
  Px  C    1   -0.2662   -0.2090   -0.1363   -0.0803
  Py  C    1    0.0134    0.5657    0.1716   -0.1464
  Pz  C    1   -0.0000    0.0001    0.0000   -0.0000
  S   C    2   -0.2297   -0.0166   -0.4158   -0.3733
  Px  C    2   -0.1739   -0.0489    0.2616    0.1720
  Py  C    2    0.1627   -0.1917   -0.1338    0.3787
  Pz  C    2   -0.0000   -0.0000    0.0000   -0.0000
  S   C    3   -0.2714    0.1161    0.0200    0.6180
  Px  C    3    0.5673    0.0622   -0.0980    0.2658
  Py  C    3    0.0891   -0.3078    0.5194    0.0895
  Pz  C    3   -0.0000    0.0001   -0.0001    0.0000
  S   H    4   -0.0275    0.1304    0.4011    0.0140
  S   H    5    0.6293   -0.0001   -0.1257   -0.1616
  S   H    6    0.0734   -0.3616    0.4334   -0.3972
  S   H    7    0.0529   -0.1103    0.0072    0.0578
  S   O    8    0.0331    0.2186    0.0774   -0.0338
  Px  O    8    0.0301   -0.2535   -0.0674    0.0595
  Py  O    8    0.0756    0.3929    0.1577   -0.0539
  Pz  O    8    0.0000    0.0001    0.0000   -0.0000


              NET ATOMIC CHARGES AND DIPOLE CONTRIBUTIONS

  ATOM NO.   TYPE          CHARGE      No. of ELECS.   s-Pop       p-Pop       
    1          C           0.222100        3.7779     1.09584     2.68205
    2          C          -0.372325        4.3723     1.06910     3.30322
    3          C          -0.502211        4.5022     1.06370     3.43851
    4          H           0.090068        0.9099     0.90993
    5          H           0.087436        0.9126     0.91256
    6          H           0.131989        0.8680     0.86801
    7          H           0.027371        0.9726     0.97263
    8          O          -0.684428        6.6844     1.86996     4.81447
 DIPOLE           X         Y         Z       TOTAL
 POINT-CHG.    -0.749     2.208     0.001     2.331
 HYBRID         0.003    -0.129     0.000     0.129
 SUM           -0.746     2.078     0.001     2.208


          ATOMIC ORBITAL ELECTRON POPULATIONS

     Atom    s        px        py        pz   
    1  C   1.09584   0.91888   0.87553   0.88764
    2  C   1.06910   1.02587   1.04299   1.23437
    3  C   1.06370   1.05803   1.08952   1.29096
    4  H   0.90993
    5  H   0.91256
    6  H   0.86801
    7  H   0.97263
    8  O   1.86996   1.76799   1.45946   1.58703


                    (SZ)    =    0.500000
                    (S**2)  =    0.790212


          ATOMIC ORBITAL SPIN POPULATIONS

    Atom   Total    s     px     py     pz   
         Atomic
    1  C  0.2190  0.004  0.006  0.000  0.209
    2  C -0.0025 -0.005 -0.011 -0.007  0.020
    3  C  0.6124  0.014  0.018  0.017  0.562
    4  H -0.0001 -0.000
    5  H -0.0186 -0.019
    6  H -0.0182 -0.018
    7  H -0.0087 -0.009
    8  O  0.2168  0.007  0.002 -0.001  0.209

 **********************
 *                    *
 * JOB ENDED NORMALLY *
 *                    *
 **********************



 TOTAL JOB TIME:             0.07 SECONDS

 == MOPAC DONE ==
