 *******************************************************************************
 ** Site#: 29116        For non-commercial use only    Version 19.024L 64BITS **
 *******************************************************************************
 ** Cite this program as: MOPAC2016, Version: 19.024L, James J. P. Stewart,   **
 ** Stewart Computational Chemistry, web: HTTP://OpenMOPAC.net. Days left: 228**
 *******************************************************************************
 **                                                                           **
 **                                MOPAC2016                                  **
 **                                                                           **
 *******************************************************************************

                              PM7 CALCULATION RESULTS

 *******************************************************************************
 *  CALCULATION DONE:                                Mon Jun 10 15:40:34 2019  *
 *  PM7        - The PM7 Hamiltonian to be used
 *  DOUBLET    - SPIN STATE DEFINED AS A DOUBLET
 *
 *
 *
 *                 CHARGE ON SYSTEM =    +1
 *
 *
 *
 *  1SCF       - DO 1 SCF AND THEN STOP 
 *  T=         - A TIME OF 172800.0 SECONDS REQUESTED
 *  DUMP=N     - RESTART FILE WRITTEN EVERY  7200.000 SECONDS
 *  AUX        - OUTPUT AUXILIARY INFORMATION
 *  BONDS      - FINAL BOND-ORDER MATRIX TO BE PRINTED
 *******************************************************************************
PM7 1SCF    CHARGE=1 Doublet  BONDS AUX

 Mopac file generated by Gabedit
   ATOM   CHEMICAL          X               Y               Z
  NUMBER   SYMBOL      (ANGSTROMS)     (ANGSTROMS)     (ANGSTROMS)
 
     1       C          0.81127639  *   0.46470281  *   0.00008545  *
     2       C         -0.66697938  *   0.60265201  *  -0.00008310  *
     3       C         -1.46847835  *  -0.46857764  *   0.00004476  *
     4       H         -1.06752269  *   1.61472511  *  -0.00023403  *
     5       H         -2.55092217  *  -0.38156522  *  -0.00001742  *
     6       H         -1.04088787  *  -1.46775636  *   0.00024280  *
     7       H          1.37413283  *   1.42321831  *   0.00037206  *
     8       O          1.40378599  *  -0.59766061  *  -0.00008076  *
 


          CARTESIAN COORDINATES 

    NO.       ATOM           X           Y           Z

     1         C          0.8113      0.4647      0.0001
     2         C         -0.6670      0.6027     -0.0001
     3         C         -1.4685     -0.4686      0.0000
     4         H         -1.0675      1.6147     -0.0002
     5         H         -2.5509     -0.3816     -0.0000
     6         H         -1.0409     -1.4678      0.0002
     7         H          1.3741      1.4232      0.0004
     8         O          1.4038     -0.5977     -0.0001

 General Reference for PM7:
 "Optimization of Parameters for Semiempirical Methods VI: More Modifications to the 
 NDDO Approximations and Re-optimization of Parameters", J. J. P. Stewart, J. Mol. Mod., 1:32, 19 (2013)
 http://www.springerlink.com/openurl.asp?genre=article&id=doi:10.1007/s00894-012-1667-x

           Empirical Formula: C3 H4 O  =     8 atoms



      MOLECULAR POINT GROUP   :   Cs  


 DOUBLET STATE CALCULATION


          UHF CALCULATION, NO. OF ALPHA ELECTRONS =   11
                           NO. OF BETA  ELECTRONS =   10

 -------------------------------------------------------------------------------
 PM7 1SCF    CHARGE=1 Doublet  BONDS AUX

 Mopac file generated by Gabedit


     1SCF WAS SPECIFIED, SO BFGS WAS NOT USED                 
     SCF FIELD WAS ACHIEVED                                   


                              PM7 CALCULATION
                                                       MOPAC2016 (Version: 19.024L)
                                                       Mon Jun 10 15:40:34 2019
                                                       No. of days remaining = 228




          FINAL HEAT OF FORMATION =        209.01715 KCAL/MOL =     874.52777 KJ/MOL


          TOTAL ENERGY            =       -707.06354 EV
          ELECTRONIC ENERGY       =      -2014.44513 EV  POINT GROUP:     Cs  
          CORE-CORE REPULSION     =       1307.38159 EV
          COSMO AREA              =         96.32 SQUARE ANGSTROMS
          COSMO VOLUME            =         79.55 CUBIC ANGSTROMS

          IONIZATION POTENTIAL    =         16.936461 EV
          ALPHA SOMO LUMO (EV)    =        -17.095 -7.298
          BETA  SOMO LUMO (EV)    =        -16.936 -9.086
          NO. OF ALPHA ELECTRONS  =         11
          NO. OF BETA  ELECTRONS  =         10
          MOLECULAR WEIGHT        =         56.0640

          MOLECULAR DIMENSIONS (Angstroms)

            Atom       Atom       Distance
            H     7    H     5     4.32010
            O     8    H     4     3.04250
            H     6    H     4     0.00056


          SCF CALCULATIONS        =          1
 
          WALL-CLOCK TIME         =          0.062 SECONDS
          COMPUTATION TIME        =          0.078 SECONDS




   ATOM   CHEMICAL          X               Y               Z
  NUMBER   SYMBOL      (ANGSTROMS)     (ANGSTROMS)     (ANGSTROMS)
 
     1       C          0.81127639  *   0.46470281  *   0.00008545  *
     2       C         -0.66697938  *   0.60265201  *  -0.00008310  *
     3       C         -1.46847835  *  -0.46857764  *   0.00004476  *
     4       H         -1.06752269  *   1.61472511  *  -0.00023403  *
     5       H         -2.55092217  *  -0.38156522  *  -0.00001742  *
     6       H         -1.04088787  *  -1.46775636  *   0.00024280  *
     7       H          1.37413283  *   1.42321831  *   0.00037206  *
     8       O          1.40378599  *  -0.59766061  *  -0.00008076  *

                             CARTESIAN COORDINATES

   1    C        0.811276387     0.464702809     0.000085450
   2    C       -0.666979379     0.602652009    -0.000083095
   3    C       -1.468478353    -0.468577641     0.000044755
   4    H       -1.067522685     1.614725109    -0.000234025
   5    H       -2.550922170    -0.381565219    -0.000017422
   6    H       -1.040887871    -1.467756360     0.000242800
   7    H        1.374132826     1.423218314     0.000372057
   8    O        1.403785994    -0.597660613    -0.000080759


           Empirical Formula: C3 H4 O  =     8 atoms



      MOLECULAR POINT GROUP   :   Cs  


          ALPHA EIGENVALUES  
 -41.75890 -34.27817 -30.36372 -25.76031 -24.67052 -22.56887 -22.14927 -21.01268
 -19.24656 -18.36377 -17.09467  -7.29787  -4.84873  -3.81165  -3.10260  -2.19095
  -0.80358  -0.16808   0.31658   0.50881


           BETA EIGENVALUES 
 -38.68332 -33.92290 -29.80848 -25.18352 -23.60509 -22.04647 -21.41433 -20.32605
 -18.67260 -16.93646  -9.08564  -7.09403  -4.86699  -3.25258  -2.71476  -1.85167
  -0.76701  -0.16366   0.32337   0.51310


              NET ATOMIC CHARGES AND DIPOLE CONTRIBUTIONS

  ATOM NO.   TYPE          CHARGE      No. of ELECS.   s-Pop       p-Pop       
    1          C           0.197762        3.8022     1.18914     2.61310
    2          C          -0.270423        4.2704     1.08846     3.18197
    3          C          -0.018500        4.0185     1.13851     2.87999
    4          H           0.226316        0.7737     0.77368
    5          H           0.206132        0.7939     0.79387
    6          H           0.170000        0.8300     0.83000
    7          H           0.280016        0.7200     0.71998
    8          O           0.208698        5.7913     1.90424     3.88707
 DIPOLE           X         Y         Z       TOTAL
 POINT-CHG.     0.209     1.295     0.001     1.312
 HYBRID         0.515    -0.313     0.000     0.602
 SUM            0.724     0.982     0.001     1.220


          ATOMIC ORBITAL ELECTRON POPULATIONS

     Atom    s        px        py        pz   
    1  C   1.18914   1.00764   0.95962   0.64583
    2  C   1.08846   0.86272   1.14084   1.17840
    3  C   1.13851   1.12995   1.06013   0.68991
    4  H   0.77368
    5  H   0.79387
    6  H   0.83000
    7  H   0.71998
    8  O   1.90424   1.19642   1.20479   1.48585


                    (SZ)    =    0.500000
                    (S**2)  =    0.774525


          ATOMIC ORBITAL SPIN POPULATIONS

    Atom   Total    s     px     py     pz   
         Atomic
    1  C -0.1114 -0.020 -0.001 -0.021 -0.070
    2  C  0.1567  0.015  0.098  0.006  0.037
    3  C -0.0735 -0.003  0.000 -0.003 -0.068
    4  H -0.0011 -0.001
    5  H  0.0082  0.008
    6  H  0.0039  0.004
    7  H  0.1054  0.105
    8  O  0.9119  0.018  0.581  0.213  0.100

          BONDING CONTRIBUTION OF EACH ALPHA M.O.

  0.4312  0.8924  0.8171  0.8025  0.6652  0.8721  0.7000  0.7425  0.7749  0.8510
  0.9438 -0.7723 -0.8715 -1.0070 -0.9873 -0.9719 -0.9929 -0.9598 -0.9662 -0.9639

          BONDING CONTRIBUTION OF EACH BETA  M.O.

  0.6248  0.8921  0.8171  0.8165  1.0549  0.8232  0.8724  1.0331  0.9875  0.9735
 -0.4953 -0.9093 -0.9366 -0.9680 -0.9037 -0.8226 -0.9852 -0.9583 -0.9603 -0.9557





            (VALENCIES)   BOND ORDERS

     1  C     (3.794)     8  O 1.816     2  C 1.007     7  H 0.829     3  C 0.050
 
     2  C     (3.891)     3  C 1.814     1  C 1.007     4  H 0.934     8  O 0.043
 
     3  C     (3.836)     2  C 1.814     6  H 0.961     5  H 0.943     8  O 0.054     1  C 0.050
 
     4  H     (0.949)     2  C 0.934
 
     5  H     (0.958)     3  C 0.943
 
     6  H     (0.971)     3  C 0.961
 
     7  H     (0.922)     1  C 0.829     8  O 0.016
 
     8  O     (2.725)     1  C 1.816     3  C 0.054     2  C 0.043     7  H 0.016
 

 **********************
 *                    *
 * JOB ENDED NORMALLY *
 *                    *
 **********************



 TOTAL JOB TIME:             0.11 SECONDS

 == MOPAC DONE ==
