 *******************************************************************************
 ** Site#: 29116        For non-commercial use only    Version 18.025L 64BITS **
 *******************************************************************************
 ** Cite this program as: MOPAC2016, Version: 18.025L, James J. P. Stewart,   **
 ** Stewart Computational Chemistry, web: HTTP://OpenMOPAC.net. Days left:  15**
 *******************************************************************************
 **                                                                           **
 **                                MOPAC2016                                  **
 **                                                                           **
 *******************************************************************************

                              PM7 CALCULATION RESULTS


 *******************************************************************************
 *  CALCULATION DONE:                                Thu Jan 10 12:48:18 2019  *
 *  PM7        - The PM7 Hamiltonian to be used
 *  MOZYME     - USE LOCALIZED M.O.s IN SOLVING THE SCF EQUATIONS
 *  1SCF       - DO 1 SCF AND THEN STOP 
 *  T=         - A TIME OF 172800.0 SECONDS REQUESTED
 *  DUMP=N     - RESTART FILE WRITTEN EVERY  7200.000 SECONDS
 *  AUX        - OUTPUT AUXILIARY INFORMATION
 *  VECTORS    - FINAL MOLECULAR ORBITALS TO BE PRINTED
 *  LARGE      - EXPANDED OUTPUT TO BE PRINTED
 *  GRAPH      - GENERATE FILE FOR GRAPHICS
 *  ALLVEC     - PRINT ALL EIGENVECTORS
 *******************************************************************************
PM7 1SCF mozyme AUX VECTORS ALLVECS LARGE GRAPHF


   ATOM   CHEMICAL          X               Y               Z
  NUMBER   SYMBOL      (ANGSTROMS)     (ANGSTROMS)     (ANGSTROMS)
 
     1       N         -8.90100000  *   4.12700000  *  -0.55500000   
     2       C         -8.60800000  *   3.13500000  *  -1.61800000   
     3       C         -7.11700000  *   2.96400000  *  -1.89700000   
     4       O         -6.63400000  *   1.84900000  *  -1.75800000   
     5       C         -9.43700000  *   3.39600000  *  -2.88900000   
     6       C        -10.91500000  *   3.13000000  *  -2.61100000   
     7       N        -11.80600000  *   3.40600000  *  -3.54300000   
     8       O        -11.26900000  *   2.70000000  *  -1.52400000   
     9       H         -8.93000000  *   2.16200000  *  -1.23900000   
    10       H         -9.31000000  *   4.41700000  *  -3.19300000   
    11       H         -9.10800000  *   2.71900000  *  -3.67900000   
    12       H        -11.57200000  *   3.79100000  *  -4.44400000   
    13       H        -12.75700000  *   3.18300000  *  -3.29400000   
    14       H         -8.33000000  *   3.95700000  *   0.26100000   
    15       H         -8.74000000  *   5.06800000  *  -0.88900000   
    16       H         -9.87700000  *   4.04100000  *  -0.29300000   
    17       N         -6.37900000  *   4.03100000  *  -2.22800000   
    18       C         -4.92300000  *   4.00200000  *  -2.45200000   
    19       C         -4.13600000  *   3.18700000  *  -1.40400000   
    20       O         -3.39100000  *   2.27400000  *  -1.76000000   
    21       C         -4.41100000  *   5.45000000  *  -2.61900000   
    22       C         -4.79500000  *   6.45000000  *  -1.49500000   
    23       C         -3.61200000  *   6.80300000  *  -0.59900000   
    24       C         -5.35100000  *   7.74800000  *  -2.08400000   
    25       H         -6.82100000  *   4.92300000  *  -2.39400000   
    26       H         -4.75000000  *   3.49400000  *  -3.40300000   
    27       H         -3.34000000  *   5.41400000  *  -2.67200000   
    28       H         -4.81300000  *   5.81700000  *  -3.56400000   
    29       H         -5.56800000  *   6.02200000  *  -0.85800000   
    30       H         -3.20700000  *   5.90500000  *  -0.14600000   
    31       H         -2.84100000  *   7.30400000  *  -1.18300000   
    32       H         -3.92900000  *   7.47700000  *   0.19700000   
    33       H         -4.60700000  *   8.20900000  *  -2.73600000   
    34       H         -6.25500000  *   7.54400000  *  -2.65700000   
    35       H         -5.59200000  *   8.44500000  *  -1.28100000   
    36       N         -4.35400000  *   3.45500000  *  -0.11100000   
    37       C         -3.69000000  *   2.73800000  *   0.98100000   
    38       C         -4.10200000  *   1.25600000  *   1.07400000   
    39       O         -3.29100000  *   0.40900000  *   1.44200000   
    40       C         -3.96400000  *   3.47200000  *   2.30200000   
    41       C         -2.82400000  *   3.33900000  *   3.29000000   
    42       C         -2.74600000  *   2.21700000  *   4.13800000   
    43       C         -1.82000000  *   4.32600000  *   3.33200000   
    44       C         -1.65700000  *   2.07600000  *   5.01800000   
    45       C         -0.72500000  *   4.18500000  *   4.20500000   
    46       C         -0.63900000  *   3.05300000  *   5.04300000   
    47       O          0.43300000  *   2.88100000  *   5.86100000   
    48       H         -4.93400000  *   4.24500000  *   0.12000000   
    49       H         -2.61500000  *   2.76800000  *   0.79600000   
    50       H         -4.11700000  *   4.51300000  *   2.09100000   
    51       H         -4.88600000  *   3.09600000  *   2.75000000   
    52       H         -3.51300000  *   1.45600000  *   4.10100000   
    53       H         -1.87700000  *   5.20000000  *   2.69500000   
    54       H         -1.57600000  *   1.22100000  *   5.66900000   
    55       H          0.03300000  *   4.95200000  *   4.23300000   
    56       H          1.18700000  *   3.39500000  *   5.56700000   
    57       N         -5.34200000  *   0.92500000  *   0.68900000   
    58       C         -5.85700000  *  -0.44900000  *   0.61300000   
    59       C         -5.08900000  *  -1.22100000  *  -0.47000000   
    60       O         -4.62100000  *  -2.33400000  *  -0.22600000   
    61       C         -7.38600000  *  -0.46600000  *   0.34300000   
    62       C         -8.19700000  *   0.54000000  *   1.19700000   
    63       C         -7.95900000  *  -1.88400000  *   0.50100000   
    64       C         -8.01900000  *   0.41200000  *   2.71500000   
    65       H         -5.90600000  *   1.65600000  *   0.28300000   
    66       H         -5.67000000  *  -0.94100000  *   1.56800000   
    67       H         -7.55400000  *  -0.19200000  *  -0.69700000   
    68       H         -7.90000000  *   1.53100000  *   0.91200000   
    69       H         -9.25700000  *   0.42400000  *   0.96400000   
    70       H         -7.50900000  *  -2.55500000  *  -0.23200000   
    71       H         -7.75900000  *  -2.27100000  *   1.50100000   
    72       H         -9.03600000  *  -1.87100000  *   0.33200000   
    73       H         -8.30600000  *  -0.58500000  *   3.04900000   
    74       H         -6.98300000  *   0.60600000  *   2.99500000   
    75       H         -8.65600000  *   1.14400000  *   3.21300000   
    76       N         -4.90700000  *  -0.60100000  *  -1.64500000   
    77       C         -4.12200000  *  -1.16700000  *  -2.74300000   
    78       C         -2.62900000  *  -1.32100000  *  -2.39000000   
    79       O         -1.98600000  *  -2.24000000  *  -2.88400000   
    80       C         -4.29200000  *  -0.31300000  *  -4.01300000   
    81       C         -4.24400000  *  -1.17100000  *  -5.29000000   
    82       C         -5.57600000  *  -1.86000000  *  -5.58500000   
    83       N         -6.53200000  *  -1.14600000  *  -6.15200000   
    84       O         -5.76900000  *  -3.04400000  *  -5.33500000   
    85       H         -5.32700000  *   0.31800000  *  -1.76300000   
    86       H         -4.51700000  *  -2.16200000  *  -2.94000000   
    87       H         -5.23800000  *   0.19100000  *  -3.96900000   
    88       H         -3.49200000  *   0.42900000  *  -4.05300000   
    89       H         -3.99300000  *  -0.53900000  *  -6.12000000   
    90       H         -3.45800000  *  -1.92300000  *  -5.20500000   
    91       H         -6.38900000  *  -0.18400000  *  -6.40800000   
    92       H         -7.39200000  *  -1.63500000  *  -6.33500000   
    93       N         -2.07400000  *  -0.45900000  *  -1.52800000   
    94       C         -0.71600000  *  -0.63100000  *  -0.99300000   
    95       C         -0.63100000  *  -1.76600000  *   0.04400000   
    96       O          0.29500000  *  -2.57900000  *  -0.00400000   
    97       C         -0.22100000  *   0.70300000  *  -0.41700000   
    98       C          1.14800000  *   0.65200000  *   0.19400000   
    99       C          2.31900000  *   0.66400000  *  -0.48200000   
   100       C          1.50800000  *   0.56400000  *   1.60600000   
   101       C          2.92800000  *   0.51500000  *   1.71000000   
   102       C          0.77900000  *   0.52400000  *   2.81200000   
   103       N          3.37100000  *   0.56000000  *   0.41100000   
   104       C          3.59900000  *   0.44500000  *   2.93800000   
   105       C          1.43900000  *   0.43300000  *   4.05300000   
   106       C          2.84200000  *   0.40700000  *   4.12000000   
   107       H         -2.62400000  *   0.34300000  *  -1.24200000   
   108       H         -0.05200000  *  -0.90800000  *  -1.81300000   
   109       H         -0.20600000  *   1.42500000  *  -1.21100000   
   110       H         -0.92100000  *   1.04400000  *   0.34400000   
   111       H          2.41200000  *   0.73300000  *  -1.55800000   
   112       H          4.36000000  *   0.53600000  *   0.15600000   
   113       H         -0.29900000  *   0.57100000  *   2.77300000   
   114       H          4.67900000  *   0.41800000  *   2.96100000   
   115       H          0.86200000  *   0.40000000  *   4.96600000   
   116       H          3.33400000  *   0.36000000  *   5.08100000   
   117       N         -1.60000000  *  -1.86000000  *   0.96700000   
   118       C         -1.64100000  *  -2.93200000  *   1.96300000   
   119       C         -1.84700000  *  -4.31900000  *   1.34200000   
   120       O         -1.14400000  *  -5.24800000  *   1.74200000   
   121       C         -2.71000000  *  -2.64500000  *   3.03300000   
   122       C         -2.30100000  *  -1.57900000  *   4.06900000   
   123       C         -3.47500000  *  -1.32300000  *   5.01800000   
   124       C         -1.09300000  *  -2.00700000  *   4.91400000   
   125       H         -2.31600000  *  -1.13700000  *   0.99400000   
   126       H         -0.66600000  *  -2.97800000  *   2.44500000   
   127       H         -3.60000000  *  -2.30800000  *   2.53700000   
   128       H         -2.92100000  *  -3.57100000  *   3.57200000   
   129       H         -2.06100000  *  -0.64900000  *   3.56000000   
   130       H         -4.34300000  *  -0.99200000  *   4.44900000   
   131       H         -3.72500000  *  -2.23700000  *   5.56000000   
   132       H         -3.21100000  *  -0.54900000  *   5.73900000   
   133       H         -1.27000000  *  -2.98900000  *   5.35400000   
   134       H         -0.19500000  *  -2.04500000  *   4.30000000   
   135       H         -0.92200000  *  -1.28600000  *   5.71200000   
   136       N         -2.75300000  *  -4.48100000  *   0.36000000   
   137       C         -3.02400000  *  -5.79100000  *  -0.26900000   
   138       C         -1.79600000  *  -6.42700000  *  -0.93700000   
   139       O         -1.71900000  *  -7.64800000  *  -1.03000000   
   140       C         -4.22400000  *  -5.69700000  *  -1.23200000   
   141       C         -3.93000000  *  -5.00900000  *  -2.57700000   
   142       C         -3.68200000  *  -5.98600000  *  -3.73600000   
   143       C         -3.49400000  *  -5.19900000  *  -5.03900000   
   144       N         -4.56300000  *  -5.48300000  *  -6.02300000   
   145       H         -3.32100000  *  -3.67500000  *   0.09700000   
   146       H         -3.30900000  *  -6.47800000  *   0.52900000   
   147       H         -4.56500000  *  -6.69400000  *  -1.43600000   
   148       H         -5.01900000  *  -5.14300000  *  -0.73100000   
   149       H         -4.76900000  *  -4.39000000  *  -2.83000000   
   150       H         -3.06200000  *  -4.36800000  *  -2.46900000   
   151       H         -2.79900000  *  -6.56200000  *  -3.53600000   
   152       H         -4.52400000  *  -6.67400000  *  -3.81800000   
   153       H         -3.50200000  *  -4.15000000  *  -4.81300000   
   154       H         -2.51100000  *  -5.43900000  *  -5.45700000   
   155       H         -4.62100000  *  -6.47400000  *  -6.21100000   
   156       H         -5.44200000  *  -5.12400000  *  -5.65700000   
   157       H         -4.38200000  *  -4.98300000  *  -6.88100000   
   158       N         -0.82800000  *  -5.60700000  *  -1.35500000   
   159       C          0.46600000  *  -6.01600000  *  -1.90500000   
   160       C          1.48100000  *  -6.46400000  *  -0.83200000   
   161       O          2.54500000  *  -6.97100000  *  -1.19400000   
   162       C          1.03300000  *  -4.83900000  *  -2.72400000   
   163       C          0.67200000  *  -4.90600000  *  -4.21000000   
   164       O         -0.53200000  *  -5.05100000  *  -4.52200000   
   165       O          1.62700000  *  -4.81500000  *  -5.01700000   
   166       H         -1.01000000  *  -4.61600000  *  -1.29100000   
   167       H          0.31900000  *  -6.86700000  *  -2.57400000   
   168       H          0.64400000  *  -3.92400000  *  -2.32000000   
   169       H          2.11600000  *  -4.83700000  *  -2.65000000   
   170       N          1.18500000  *  -6.27800000  *   0.46400000   
   171       C          2.06000000  *  -6.61800000  *   1.59300000   
   172       C          2.62800000  *  -5.41200000  *   2.35300000   
   173       O          3.49600000  *  -5.59400000  *   3.20800000   
   174       H          0.26500000  *  -5.90800000  *   0.69300000   
   175       H          1.48600000  *  -7.21400000  *   2.30400000   
   176       H          2.89700000  *  -7.22800000  *   1.25200000   
   177       N          2.17200000  *  -4.18700000  *   2.05500000   
   178       C          2.62600000  *  -2.96700000  *   2.72300000   
   179       C          4.15700000  *  -2.80200000  *   2.65400000   
   180       O          4.71000000  *  -2.82900000  *   1.55100000   
   181       H          1.48100000  *  -4.08900000  *   1.31900000   
   182       H          2.16400000  *  -2.10900000  *   2.23700000   
   183       H          2.28000000  *  -2.99700000  *   3.75300000   
   184       N          4.87100000  *  -2.65100000  *   3.79400000   
   185       C          6.33300000  *  -2.53300000  *   3.80600000   
   186       C          7.05800000  *  -3.72900000  *   3.16500000   
   187       O          8.13900000  *  -3.56200000  *   2.60100000   
   188       C          6.74000000  *  -2.38700000  *   5.27900000   
   189       C          5.46000000  *  -1.95200000  *   5.98700000   
   190       C          4.36200000  *  -2.61500000  *   5.16000000   
   191       H          6.61100000  *  -1.62600000  *   3.26700000   
   192       H          7.09100000  *  -3.32300000  *   5.67000000   
   193       H          7.53100000  *  -1.64700000  *   5.40300000   
   194       H          5.44300000  *  -2.30200000  *   7.00100000   
   195       H          5.35800000  *  -0.86700000  *   5.92900000   
   196       H          4.17300000  *  -3.60900000  *   5.51600000   
   197       H          3.44000000  *  -2.04200000  *   5.24600000   
   198       N          6.46300000  *  -4.92900000  *   3.20500000   
   199       C          7.04900000  *  -6.17900000  *   2.70400000   
   200       C          6.89700000  *  -6.36900000  *   1.18500000   
   201       O          7.02500000  *  -7.48800000  *   0.69700000   
   202       C          6.45800000  *  -7.37100000  *   3.47200000   
   203       O          6.76300000  *  -7.26400000  *   4.85000000   
   204       H          5.53500000  *  -4.99900000  *   3.61300000   
   205       H          8.12100000  *  -6.15900000  *   2.90300000   
   206       H          5.39300000  *  -7.38200000  *   3.34400000   
   207       H          6.88000000  *  -8.30200000  *   3.09300000   
   208       H          7.70700000  *  -7.39400000  *   4.97000000   
   209       N          6.63700000  *  -5.29000000  *   0.43400000   
   210       C          6.38900000  *  -5.31500000  *  -1.01500000   
   211       C          7.33200000  *  -4.40500000  *  -1.82300000   
   212       O          7.08200000  *  -4.12300000  *  -2.99300000   
   213       C          4.91400000  *  -4.99300000  *  -1.26500000   
   214       O          4.43100000  *  -5.74300000  *  -2.35800000   
   215       H          6.50900000  *  -4.41500000  *   0.93000000   
   216       H          6.56200000  *  -6.32900000  *  -1.37800000   
   217       H          4.34400000  *  -5.23600000  *  -0.38900000   
   218       H          4.77800000  *  -3.93400000  *  -1.45700000   
   219       H          3.71400000  *  -6.32400000  *  -1.98700000   
   220       N          8.41900000  *  -3.92000000  *  -1.20200000   
   221       C          9.45100000  *  -3.11600000  *  -1.87000000   
   222       C          8.98400000  *  -1.72500000  *  -2.31600000   
   223       O          9.53900000  *  -1.17700000  *  -3.26700000   
   224       H          8.57300000  *  -4.21000000  *  -0.24600000   
   225       H         10.29700000  *  -2.98700000  *  -1.19400000   
   226       H          9.80500000  *  -3.65200000  *  -2.75200000   
   227       N          7.95600000  *  -1.16400000  *  -1.66000000   
   228       C          7.28900000  *   0.08400000  *  -2.05400000   
   229       C          6.85500000  *   0.91600000  *  -0.82900000   
   230       O          6.22200000  *   0.36600000  *   0.07600000   
   231       C          6.11000000  *  -0.24300000  *  -2.99400000   
   232       C          5.04600000  *  -1.17100000  *  -2.37800000   
   233       C          3.92300000  *  -1.59200000  *  -3.33800000   
   234       N          4.25100000  *  -2.81100000  *  -4.10000000   
   235       C          4.85900000  *  -2.91400000  *  -5.27400000   
   236       N          5.28900000  *  -1.86400000  *  -5.93700000   
   237       N          5.03500000  *  -4.09500000  *  -5.80900000   
   238       H          7.57900000  *  -1.67600000  *  -0.87400000   
   239       H          8.00900000  *   0.66300000  *  -2.63000000   
   240       H          5.63400000  *   0.67800000  *  -3.26900000   
   241       H          6.52400000  *  -0.72000000  *  -3.88000000   
   242       H          5.53800000  *  -2.05900000  *  -2.03100000   
   243       H          4.57900000  *  -0.65200000  *  -1.54900000   
   244       H          3.03300000  *  -1.77400000  *  -2.76600000   
   245       H          3.66900000  *  -0.76500000  *  -4.00300000   
   246       H          3.96300000  *  -3.69400000  *  -3.69800000   
   247       H          5.15000000  *  -0.96200000  *  -5.52100000   
   248       H          5.76100000  *  -1.96200000  *  -6.81500000   
   249       H          4.64900000  *  -4.89400000  *  -5.32700000   
   250       H          5.50800000  *  -4.20500000  *  -6.68400000   
   251       N          7.15600000  *   2.23000000  *  -0.78000000   
   252       C          6.78200000  *   3.08800000  *   0.34500000   
   253       C          5.26100000  *   3.33100000  *   0.39500000   
   254       O          4.58600000  *   3.16500000  *  -0.62400000   
   255       C          7.55400000  *   4.39400000  *   0.11900000   
   256       C          7.67700000  *   4.47400000  *  -1.40100000   
   257       C          7.82000000  *   3.01000000  *  -1.81600000   
   258       H          7.10700000  *   2.62800000  *   1.27900000   
   259       H          7.00900000  *   5.23400000  *   0.50500000   
   260       H          8.54800000  *   4.30800000  *   0.56100000   
   261       H          6.80000000  *   4.91400000  *  -1.83600000   
   262       H          8.54000000  *   5.06600000  *  -1.70700000   
   263       H          7.34900000  *   2.84400000  *  -2.76600000   
   264       H          8.87600000  *   2.73900000  *  -1.85500000   
   265       N          4.71000000  *   3.73900000  *   1.55500000   
   266       C          3.28700000  *   4.03100000  *   1.68600000   
   267       C          2.90100000  *   5.30500000  *   0.91300000   
   268       O          3.68400000  *   6.25600000  *   0.87100000   
   269       C          3.03500000  *   4.19000000  *   3.18700000   
   270       C          4.38500000  *   4.65500000  *   3.72900000   
   271       C          5.39300000  *   3.94900000  *   2.82300000   
   272       H          2.71900000  *   3.18100000  *   1.31600000   
   273       H          2.27400000  *   4.92400000  *   3.37200000   
   274       H          2.78100000  *   3.22300000  *   3.61800000   
   275       H          4.48200000  *   5.72100000  *   3.65400000   
   276       H          4.51800000  *   4.37700000  *   4.77500000   
   277       H          6.26200000  *   4.56200000  *   2.68200000   
   278       H          5.66200000  *   2.98300000  *   3.25300000   
   279       N          1.68800000  *   5.36000000  *   0.33600000   
   280       C          1.18500000  *   6.54300000  *  -0.35300000   
   281       C          0.71500000  *   7.60700000  *   0.65500000   
   282       O         -0.12400000  *   7.32400000  *   1.51300000   
   283       C          0.04800000  *   6.01400000  *  -1.22900000   
   284       C         -0.51900000  *   4.85200000  *  -0.41200000   
   285       C          0.71600000  *   4.27500000  *   0.27200000   
   286       H          1.96100000  *   6.96600000  *  -0.99100000   
   287       H         -0.69700000  *   6.77000000  *  -1.38900000   
   288       H          0.46300000  *   5.63000000  *  -2.16200000   
   289       H         -1.23200000  *   5.20100000  *   0.31000000   
   290       H         -1.01900000  *   4.11400000  *  -1.04100000   
   291       H          0.47000000  *   3.93700000  *   1.26000000   
   292       H          1.12100000  *   3.46100000  *  -0.32900000   
   293       N          1.27100000  *   8.82200000  *   0.54900000   
   294       C          0.85200000  *  10.02700000  *   1.28500000   
   295       C         -0.40600000  *  10.65700000  *   0.68300000   
   296       O         -0.38700000  *  10.91600000  *  -0.54000000   
   297       C          1.97200000  *  11.07100000  *   1.28400000   
   298       O          3.12000000  *  10.54100000  *   1.91100000   
   299       O         -1.34100000  *  10.90300000  *   1.47300000   
   300       H          1.96900000  *   8.96100000  *  -0.16500000   
   301       H          0.60100000  *   9.76000000  *   2.31000000   
   302       H          2.21000000  *  11.33800000  *   0.27200000   
   303       H          1.63600000  *  11.95900000  *   1.82400000   
   304       H          2.83100000  *  10.04000000  *   2.67600000   
 


          CARTESIAN COORDINATES 

    NO.       ATOM           X           Y           Z

     1         N         -8.9010      4.1270     -0.5550
     2         C         -8.6080      3.1350     -1.6180
     3         C         -7.1170      2.9640     -1.8970
     4         O         -6.6340      1.8490     -1.7580
     5         C         -9.4370      3.3960     -2.8890
     6         C        -10.9150      3.1300     -2.6110
     7         N        -11.8060      3.4060     -3.5430
     8         O        -11.2690      2.7000     -1.5240
     9         H         -8.9300      2.1620     -1.2390
    10         H         -9.3100      4.4170     -3.1930
    11         H         -9.1080      2.7190     -3.6790
    12         H        -11.5720      3.7910     -4.4440
    13         H        -12.7570      3.1830     -3.2940
    14         H         -8.3300      3.9570      0.2610
    15         H         -8.7400      5.0680     -0.8890
    16         H         -9.8770      4.0410     -0.2930
    17         N         -6.3790      4.0310     -2.2280
    18         C         -4.9230      4.0020     -2.4520
    19         C         -4.1360      3.1870     -1.4040
    20         O         -3.3910      2.2740     -1.7600
    21         C         -4.4110      5.4500     -2.6190
    22         C         -4.7950      6.4500     -1.4950
    23         C         -3.6120      6.8030     -0.5990
    24         C         -5.3510      7.7480     -2.0840
    25         H         -6.8210      4.9230     -2.3940
    26         H         -4.7500      3.4940     -3.4030
    27         H         -3.3400      5.4140     -2.6720
    28         H         -4.8130      5.8170     -3.5640
    29         H         -5.5680      6.0220     -0.8580
    30         H         -3.2070      5.9050     -0.1460
    31         H         -2.8410      7.3040     -1.1830
    32         H         -3.9290      7.4770      0.1970
    33         H         -4.6070      8.2090     -2.7360
    34         H         -6.2550      7.5440     -2.6570
    35         H         -5.5920      8.4450     -1.2810
    36         N         -4.3540      3.4550     -0.1110
    37         C         -3.6900      2.7380      0.9810
    38         C         -4.1020      1.2560      1.0740
    39         O         -3.2910      0.4090      1.4420
    40         C         -3.9640      3.4720      2.3020
    41         C         -2.8240      3.3390      3.2900
    42         C         -2.7460      2.2170      4.1380
    43         C         -1.8200      4.3260      3.3320
    44         C         -1.6570      2.0760      5.0180
    45         C         -0.7250      4.1850      4.2050
    46         C         -0.6390      3.0530      5.0430
    47         O          0.4330      2.8810      5.8610
    48         H         -4.9340      4.2450      0.1200
    49         H         -2.6150      2.7680      0.7960
    50         H         -4.1170      4.5130      2.0910
    51         H         -4.8860      3.0960      2.7500
    52         H         -3.5130      1.4560      4.1010
    53         H         -1.8770      5.2000      2.6950
    54         H         -1.5760      1.2210      5.6690
    55         H          0.0330      4.9520      4.2330
    56         H          1.1870      3.3950      5.5670
    57         N         -5.3420      0.9250      0.6890
    58         C         -5.8570     -0.4490      0.6130
    59         C         -5.0890     -1.2210     -0.4700
    60         O         -4.6210     -2.3340     -0.2260
    61         C         -7.3860     -0.4660      0.3430
    62         C         -8.1970      0.5400      1.1970
    63         C         -7.9590     -1.8840      0.5010
    64         C         -8.0190      0.4120      2.7150
    65         H         -5.9060      1.6560      0.2830
    66         H         -5.6700     -0.9410      1.5680
    67         H         -7.5540     -0.1920     -0.6970
    68         H         -7.9000      1.5310      0.9120
    69         H         -9.2570      0.4240      0.9640
    70         H         -7.5090     -2.5550     -0.2320
    71         H         -7.7590     -2.2710      1.5010
    72         H         -9.0360     -1.8710      0.3320
    73         H         -8.3060     -0.5850      3.0490
    74         H         -6.9830      0.6060      2.9950
    75         H         -8.6560      1.1440      3.2130
    76         N         -4.9070     -0.6010     -1.6450
    77         C         -4.1220     -1.1670     -2.7430
    78         C         -2.6290     -1.3210     -2.3900
    79         O         -1.9860     -2.2400     -2.8840
    80         C         -4.2920     -0.3130     -4.0130
    81         C         -4.2440     -1.1710     -5.2900
    82         C         -5.5760     -1.8600     -5.5850
    83         N         -6.5320     -1.1460     -6.1520
    84         O         -5.7690     -3.0440     -5.3350
    85         H         -5.3270      0.3180     -1.7630
    86         H         -4.5170     -2.1620     -2.9400
    87         H         -5.2380      0.1910     -3.9690
    88         H         -3.4920      0.4290     -4.0530
    89         H         -3.9930     -0.5390     -6.1200
    90         H         -3.4580     -1.9230     -5.2050
    91         H         -6.3890     -0.1840     -6.4080
    92         H         -7.3920     -1.6350     -6.3350
    93         N         -2.0740     -0.4590     -1.5280
    94         C         -0.7160     -0.6310     -0.9930
    95         C         -0.6310     -1.7660      0.0440
    96         O          0.2950     -2.5790     -0.0040
    97         C         -0.2210      0.7030     -0.4170
    98         C          1.1480      0.6520      0.1940
    99         C          2.3190      0.6640     -0.4820
   100         C          1.5080      0.5640      1.6060
   101         C          2.9280      0.5150      1.7100
   102         C          0.7790      0.5240      2.8120
   103         N          3.3710      0.5600      0.4110
   104         C          3.5990      0.4450      2.9380
   105         C          1.4390      0.4330      4.0530
   106         C          2.8420      0.4070      4.1200
   107         H         -2.6240      0.3430     -1.2420
   108         H         -0.0520     -0.9080     -1.8130
   109         H         -0.2060      1.4250     -1.2110
   110         H         -0.9210      1.0440      0.3440
   111         H          2.4120      0.7330     -1.5580
   112         H          4.3600      0.5360      0.1560
   113         H         -0.2990      0.5710      2.7730
   114         H          4.6790      0.4180      2.9610
   115         H          0.8620      0.4000      4.9660
   116         H          3.3340      0.3600      5.0810
   117         N         -1.6000     -1.8600      0.9670
   118         C         -1.6410     -2.9320      1.9630
   119         C         -1.8470     -4.3190      1.3420
   120         O         -1.1440     -5.2480      1.7420
   121         C         -2.7100     -2.6450      3.0330
   122         C         -2.3010     -1.5790      4.0690
   123         C         -3.4750     -1.3230      5.0180
   124         C         -1.0930     -2.0070      4.9140
   125         H         -2.3160     -1.1370      0.9940
   126         H         -0.6660     -2.9780      2.4450
   127         H         -3.6000     -2.3080      2.5370
   128         H         -2.9210     -3.5710      3.5720
   129         H         -2.0610     -0.6490      3.5600
   130         H         -4.3430     -0.9920      4.4490
   131         H         -3.7250     -2.2370      5.5600
   132         H         -3.2110     -0.5490      5.7390
   133         H         -1.2700     -2.9890      5.3540
   134         H         -0.1950     -2.0450      4.3000
   135         H         -0.9220     -1.2860      5.7120
   136         N         -2.7530     -4.4810      0.3600
   137         C         -3.0240     -5.7910     -0.2690
   138         C         -1.7960     -6.4270     -0.9370
   139         O         -1.7190     -7.6480     -1.0300
   140         C         -4.2240     -5.6970     -1.2320
   141         C         -3.9300     -5.0090     -2.5770
   142         C         -3.6820     -5.9860     -3.7360
   143         C         -3.4940     -5.1990     -5.0390
   144         N         -4.5630     -5.4830     -6.0230
   145         H         -3.3210     -3.6750      0.0970
   146         H         -3.3090     -6.4780      0.5290
   147         H         -4.5650     -6.6940     -1.4360
   148         H         -5.0190     -5.1430     -0.7310
   149         H         -4.7690     -4.3900     -2.8300
   150         H         -3.0620     -4.3680     -2.4690
   151         H         -2.7990     -6.5620     -3.5360
   152         H         -4.5240     -6.6740     -3.8180
   153         H         -3.5020     -4.1500     -4.8130
   154         H         -2.5110     -5.4390     -5.4570
   155         H         -4.6210     -6.4740     -6.2110
   156         H         -5.4420     -5.1240     -5.6570
   157         H         -4.3820     -4.9830     -6.8810
   158         N         -0.8280     -5.6070     -1.3550
   159         C          0.4660     -6.0160     -1.9050
   160         C          1.4810     -6.4640     -0.8320
   161         O          2.5450     -6.9710     -1.1940
   162         C          1.0330     -4.8390     -2.7240
   163         C          0.6720     -4.9060     -4.2100
   164         O         -0.5320     -5.0510     -4.5220
   165         O          1.6270     -4.8150     -5.0170
   166         H         -1.0100     -4.6160     -1.2910
   167         H          0.3190     -6.8670     -2.5740
   168         H          0.6440     -3.9240     -2.3200
   169         H          2.1160     -4.8370     -2.6500
   170         N          1.1850     -6.2780      0.4640
   171         C          2.0600     -6.6180      1.5930
   172         C          2.6280     -5.4120      2.3530
   173         O          3.4960     -5.5940      3.2080
   174         H          0.2650     -5.9080      0.6930
   175         H          1.4860     -7.2140      2.3040
   176         H          2.8970     -7.2280      1.2520
   177         N          2.1720     -4.1870      2.0550
   178         C          2.6260     -2.9670      2.7230
   179         C          4.1570     -2.8020      2.6540
   180         O          4.7100     -2.8290      1.5510
   181         H          1.4810     -4.0890      1.3190
   182         H          2.1640     -2.1090      2.2370
   183         H          2.2800     -2.9970      3.7530
   184         N          4.8710     -2.6510      3.7940
   185         C          6.3330     -2.5330      3.8060
   186         C          7.0580     -3.7290      3.1650
   187         O          8.1390     -3.5620      2.6010
   188         C          6.7400     -2.3870      5.2790
   189         C          5.4600     -1.9520      5.9870
   190         C          4.3620     -2.6150      5.1600
   191         H          6.6110     -1.6260      3.2670
   192         H          7.0910     -3.3230      5.6700
   193         H          7.5310     -1.6470      5.4030
   194         H          5.4430     -2.3020      7.0010
   195         H          5.3580     -0.8670      5.9290
   196         H          4.1730     -3.6090      5.5160
   197         H          3.4400     -2.0420      5.2460
   198         N          6.4630     -4.9290      3.2050
   199         C          7.0490     -6.1790      2.7040
   200         C          6.8970     -6.3690      1.1850
   201         O          7.0250     -7.4880      0.6970
   202         C          6.4580     -7.3710      3.4720
   203         O          6.7630     -7.2640      4.8500
   204         H          5.5350     -4.9990      3.6130
   205         H          8.1210     -6.1590      2.9030
   206         H          5.3930     -7.3820      3.3440
   207         H          6.8800     -8.3020      3.0930
   208         H          7.7070     -7.3940      4.9700
   209         N          6.6370     -5.2900      0.4340
   210         C          6.3890     -5.3150     -1.0150
   211         C          7.3320     -4.4050     -1.8230
   212         O          7.0820     -4.1230     -2.9930
   213         C          4.9140     -4.9930     -1.2650
   214         O          4.4310     -5.7430     -2.3580
   215         H          6.5090     -4.4150      0.9300
   216         H          6.5620     -6.3290     -1.3780
   217         H          4.3440     -5.2360     -0.3890
   218         H          4.7780     -3.9340     -1.4570
   219         H          3.7140     -6.3240     -1.9870
   220         N          8.4190     -3.9200     -1.2020
   221         C          9.4510     -3.1160     -1.8700
   222         C          8.9840     -1.7250     -2.3160
   223         O          9.5390     -1.1770     -3.2670
   224         H          8.5730     -4.2100     -0.2460
   225         H         10.2970     -2.9870     -1.1940
   226         H          9.8050     -3.6520     -2.7520
   227         N          7.9560     -1.1640     -1.6600
   228         C          7.2890      0.0840     -2.0540
   229         C          6.8550      0.9160     -0.8290
   230         O          6.2220      0.3660      0.0760
   231         C          6.1100     -0.2430     -2.9940
   232         C          5.0460     -1.1710     -2.3780
   233         C          3.9230     -1.5920     -3.3380
   234         N          4.2510     -2.8110     -4.1000
   235         C          4.8590     -2.9140     -5.2740
   236         N          5.2890     -1.8640     -5.9370
   237         N          5.0350     -4.0950     -5.8090
   238         H          7.5790     -1.6760     -0.8740
   239         H          8.0090      0.6630     -2.6300
   240         H          5.6340      0.6780     -3.2690
   241         H          6.5240     -0.7200     -3.8800
   242         H          5.5380     -2.0590     -2.0310
   243         H          4.5790     -0.6520     -1.5490
   244         H          3.0330     -1.7740     -2.7660
   245         H          3.6690     -0.7650     -4.0030
   246         H          3.9630     -3.6940     -3.6980
   247         H          5.1500     -0.9620     -5.5210
   248         H          5.7610     -1.9620     -6.8150
   249         H          4.6490     -4.8940     -5.3270
   250         H          5.5080     -4.2050     -6.6840
   251         N          7.1560      2.2300     -0.7800
   252         C          6.7820      3.0880      0.3450
   253         C          5.2610      3.3310      0.3950
   254         O          4.5860      3.1650     -0.6240
   255         C          7.5540      4.3940      0.1190
   256         C          7.6770      4.4740     -1.4010
   257         C          7.8200      3.0100     -1.8160
   258         H          7.1070      2.6280      1.2790
   259         H          7.0090      5.2340      0.5050
   260         H          8.5480      4.3080      0.5610
   261         H          6.8000      4.9140     -1.8360
   262         H          8.5400      5.0660     -1.7070
   263         H          7.3490      2.8440     -2.7660
   264         H          8.8760      2.7390     -1.8550
   265         N          4.7100      3.7390      1.5550
   266         C          3.2870      4.0310      1.6860
   267         C          2.9010      5.3050      0.9130
   268         O          3.6840      6.2560      0.8710
   269         C          3.0350      4.1900      3.1870
   270         C          4.3850      4.6550      3.7290
   271         C          5.3930      3.9490      2.8230
   272         H          2.7190      3.1810      1.3160
   273         H          2.2740      4.9240      3.3720
   274         H          2.7810      3.2230      3.6180
   275         H          4.4820      5.7210      3.6540
   276         H          4.5180      4.3770      4.7750
   277         H          6.2620      4.5620      2.6820
   278         H          5.6620      2.9830      3.2530
   279         N          1.6880      5.3600      0.3360
   280         C          1.1850      6.5430     -0.3530
   281         C          0.7150      7.6070      0.6550
   282         O         -0.1240      7.3240      1.5130
   283         C          0.0480      6.0140     -1.2290
   284         C         -0.5190      4.8520     -0.4120
   285         C          0.7160      4.2750      0.2720
   286         H          1.9610      6.9660     -0.9910
   287         H         -0.6970      6.7700     -1.3890
   288         H          0.4630      5.6300     -2.1620
   289         H         -1.2320      5.2010      0.3100
   290         H         -1.0190      4.1140     -1.0410
   291         H          0.4700      3.9370      1.2600
   292         H          1.1210      3.4610     -0.3290
   293         N          1.2710      8.8220      0.5490
   294         C          0.8520     10.0270      1.2850
   295         C         -0.4060     10.6570      0.6830
   296         O         -0.3870     10.9160     -0.5400
   297         C          1.9720     11.0710      1.2840
   298         O          3.1200     10.5410      1.9110
   299         O         -1.3410     10.9030      1.4730
   300         H          1.9690      8.9610     -0.1650
   301         H          0.6010      9.7600      2.3100
   302         H          2.2100     11.3380      0.2720
   303         H          1.6360     11.9590      1.8240
   304         H          2.8310     10.0400      2.6760

 General Reference for PM7:
 "Optimization of Parameters for Semiempirical Methods VI: More Modifications to the 
 NDDO Approximations and Re-optimization of Parameters", J. J. P. Stewart, J. Mol. Mod., 1:32, 19 (2013)
 http://www.springerlink.com/openurl.asp?genre=article&id=doi:10.1007/s00894-012-1667-x

           Empirical Formula: C98 H150 N27 O29  =   304 atoms


   TOPOGRAPHY OF SYSTEM

   ATOM No.    LABEL   Atoms connected to this atom
      1          N      2     14     15     16
      2          C      1      3      5      9
      3          C      4     17      2
      4          O      3
      5          C      2      6     10     11
      6          C      8      7      5
      7          N      6     12     13
      8          O      6
      9          H      2
     10          H      5
     11          H      5
     12          H      7
     13          H      7
     14          H      1
     15          H      1
     16          H      1
     17          N      3     18     25
     18          C     17     19     21     26
     19          C     20     36     18
     20          O     19
     21          C     18     22     27     28
     22          C     21     23     24     29
     23          C     22     30     31     32
     24          C     22     33     34     35
     25          H     17
     26          H     18
     27          H     21
     28          H     21
     29          H     22
     30          H     23
     31          H     23
     32          H     23
     33          H     24
     34          H     24
     35          H     24
     36          N     19     37     48
     37          C     36     38     40     49
     38          C     39     57     37
     39          O     38
     40          C     37     41     50     51
     41          C     40     42     43
     42          C     41     44     52
     43          C     41     45     53
     44          C     42     46     54
     45          C     43     46     55
     46          C     47     44     45
     47          O     46     56
     48          H     36
     49          H     37
     50          H     40
     51          H     40
     52          H     42
     53          H     43
     54          H     44
     55          H     45
     56          H     47
     57          N     38     58     65
     58          C     57     59     61     66
     59          C     60     76     58
     60          O     59
     61          C     58     62     63     67
     62          C     61     64     68     69
     63          C     61     70     71     72
     64          C     62     73     74     75
     65          H     57
     66          H     58
     67          H     61
     68          H     62
     69          H     62
     70          H     63
     71          H     63
     72          H     63
     73          H     64
     74          H     64
     75          H     64
     76          N     59     77     85
     77          C     76     78     80     86
     78          C     79     93     77
     79          O     78
     80          C     77     81     87     88
     81          C     80     82     89     90
     82          C     84     83     81
     83          N     82     91     92
     84          O     82
     85          H     76
     86          H     77
     87          H     80
     88          H     80
     89          H     81
     90          H     81
     91          H     83
     92          H     83
     93          N     78     94    107
     94          C     93     95     97    108
     95          C     96    117     94
     96          O     95
     97          C     94     98    109    110
     98          C     97     99    100
     99          C    103     98    111
    100          C     98    101    102
    101          C    103    100    104
    102          C    100    105    113
    103          N     99    101    112
    104          C    101    106    114
    105          C    102    106    115
    106          C    104    105    116
    107          H     93
    108          H     94
    109          H     97
    110          H     97
    111          H     99
    112          H    103
    113          H    102
    114          H    104
    115          H    105
    116          H    106
    117          N     95    118    125
    118          C    117    119    121    126
    119          C    120    136    118
    120          O    119
    121          C    118    122    127    128
    122          C    121    123    124    129
    123          C    122    130    131    132
    124          C    122    133    134    135
    125          H    117
    126          H    118
    127          H    121
    128          H    121
    129          H    122
    130          H    123
    131          H    123
    132          H    123
    133          H    124
    134          H    124
    135          H    124
    136          N    119    137    145
    137          C    136    138    140    146
    138          C    139    158    137
    139          O    138
    140          C    137    141    147    148
    141          C    140    142    149    150
    142          C    141    143    151    152
    143          C    144    142    153    154
    144          N    143    155    156    157
    145          H    136
    146          H    137
    147          H    140
    148          H    140
    149          H    141
    150          H    141
    151          H    142
    152          H    142
    153          H    143
    154          H    143
    155          H    144
    156          H    144
    157          H    144
    158          N    138    159    166
    159          C    158    160    162    167
    160          C    161    170    159
    161          O    160
    162          C    159    163    168    169
    163          C    164    165    162
    164          O    163
    165          O    163
    166          H    158
    167          H    159
    168          H    162
    169          H    162
    170          N    160    171    174
    171          C    170    172    175    176
    172          C    173    177    171
    173          O    172
    174          H    170
    175          H    171
    176          H    171
    177          N    172    178    181
    178          C    177    179    182    183
    179          C    180    184    178
    180          O    179
    181          H    177
    182          H    178
    183          H    178
    184          N    179    185    190
    185          C    184    186    188    191
    186          C    187    198    185
    187          O    186
    188          C    185    189    192    193
    189          C    188    190    194    195
    190          C    184    189    196    197
    191          H    185
    192          H    188
    193          H    188
    194          H    189
    195          H    189
    196          H    190
    197          H    190
    198          N    186    199    204
    199          C    198    200    202    205
    200          C    201    209    199
    201          O    200
    202          C    203    199    206    207
    203          O    202    208
    204          H    198
    205          H    199
    206          H    202
    207          H    202
    208          H    203
    209          N    200    210    215
    210          C    209    211    213    216
    211          C    212    220    210
    212          O    211
    213          C    214    210    217    218
    214          O    213    219
    215          H    209
    216          H    210
    217          H    213
    218          H    213
    219          H    214
    220          N    211    221    224
    221          C    220    222    225    226
    222          C    223    227    221
    223          O    222
    224          H    220
    225          H    221
    226          H    221
    227          N    222    228    238
    228          C    227    229    231    239
    229          C    230    251    228
    230          O    229
    231          C    228    232    240    241
    232          C    231    233    242    243
    233          C    234    232    244    245
    234          N    233    235    246
    235          C    234    236    237
    236          N    235    247    248
    237          N    235    249    250
    238          H    227
    239          H    228
    240          H    231
    241          H    231
    242          H    232
    243          H    232
    244          H    233
    245          H    233
    246          H    234
    247          H    236
    248          H    236
    249          H    237
    250          H    237
    251          N    229    252    257
    252          C    251    253    255    258
    253          C    254    265    252
    254          O    253
    255          C    252    256    259    260
    256          C    255    257    261    262
    257          C    251    256    263    264
    258          H    252
    259          H    255
    260          H    255
    261          H    256
    262          H    256
    263          H    257
    264          H    257
    265          N    253    266    271
    266          C    265    267    269    272
    267          C    268    279    266
    268          O    267
    269          C    266    270    273    274
    270          C    269    271    275    276
    271          C    265    270    277    278
    272          H    266
    273          H    269
    274          H    269
    275          H    270
    276          H    270
    277          H    271
    278          H    271
    279          N    267    280    285
    280          C    279    281    283    286
    281          C    282    293    280
    282          O    281
    283          C    280    284    287    288
    284          C    283    285    289    290
    285          C    279    284    291    292
    286          H    280
    287          H    283
    288          H    283
    289          H    284
    290          H    284
    291          H    285
    292          H    285
    293          N    281    294    300
    294          C    293    295    297    301
    295          C    296    299    294
    296          O    295
    297          C    298    294    302    303
    298          O    297    304
    299          O    295
    300          H    293
    301          H    294
    302          H    297
    303          H    297
    304          H    298

     Ion Atom No.  Type    Charge
 
    1       1      N       +1
    2     144      N       +1
    3     235      C       +1
 
    1     165      O       -1
    2     299      O       -1

          COMPUTED CHARGE ON SYSTEM: +1
  
          BECAUSE KEYWORD "CHARGE" WAS NOT USED, THE COMPUTED CHARGE OF +1 WILL BE USED IN THIS RUN.

 -------------------------------------------------------------------------------
 PM7 1SCF mozyme AUX VECTORS ALLVECS LARGE GRAPHF CHARGE=1




     1SCF WAS SPECIFIED, SO BFGS WAS NOT USED                 
     SCF FIELD WAS ACHIEVED                                   


                              PM7 CALCULATION
                                                       MOPAC2016 (Version: 18.025L)
                                                       Thu Jan 10 12:48:21 2019
                                                       No. of days remaining =  15




          FINAL HEAT OF FORMATION =      -1101.76852 KCAL/MOL =   -4609.79948 KJ/MOL


          TOTAL ENERGY            =     -27650.92098 EV
          ELECTRONIC ENERGY       =    -701443.19735 EV
          CORE-CORE REPULSION     =     673792.27637 EV

          NO. OF FILLED LEVELS    =        425
          MOLECULAR WEIGHT        =       2170.4265

          MOLECULAR DIMENSIONS (Angstroms)

            Atom       Atom       Distance
            H   208    H    13    24.47329
            H   303    H   155    21.05911
            H   248    H   131    15.07448


          SCF CALCULATIONS        =          1
 
          WALL-CLOCK TIME         =          2.457 SECONDS
          COMPUTATION TIME        =          2.424 SECONDS




   ATOM   CHEMICAL          X               Y               Z
  NUMBER   SYMBOL      (ANGSTROMS)     (ANGSTROMS)     (ANGSTROMS)
 
     1       N         -8.90100000  *   4.12700000  *  -0.55500000   
     2       C         -8.60800000  *   3.13500000  *  -1.61800000   
     3       C         -7.11700000  *   2.96400000  *  -1.89700000   
     4       O         -6.63400000  *   1.84900000  *  -1.75800000   
     5       C         -9.43700000  *   3.39600000  *  -2.88900000   
     6       C        -10.91500000  *   3.13000000  *  -2.61100000   
     7       N        -11.80600000  *   3.40600000  *  -3.54300000   
     8       O        -11.26900000  *   2.70000000  *  -1.52400000   
     9       H         -8.93000000  *   2.16200000  *  -1.23900000   
    10       H         -9.31000000  *   4.41700000  *  -3.19300000   
    11       H         -9.10800000  *   2.71900000  *  -3.67900000   
    12       H        -11.57200000  *   3.79100000  *  -4.44400000   
    13       H        -12.75700000  *   3.18300000  *  -3.29400000   
    14       H         -8.33000000  *   3.95700000  *   0.26100000   
    15       H         -8.74000000  *   5.06800000  *  -0.88900000   
    16       H         -9.87700000  *   4.04100000  *  -0.29300000   
    17       N         -6.37900000  *   4.03100000  *  -2.22800000   
    18       C         -4.92300000  *   4.00200000  *  -2.45200000   
    19       C         -4.13600000  *   3.18700000  *  -1.40400000   
    20       O         -3.39100000  *   2.27400000  *  -1.76000000   
    21       C         -4.41100000  *   5.45000000  *  -2.61900000   
    22       C         -4.79500000  *   6.45000000  *  -1.49500000   
    23       C         -3.61200000  *   6.80300000  *  -0.59900000   
    24       C         -5.35100000  *   7.74800000  *  -2.08400000   
    25       H         -6.82100000  *   4.92300000  *  -2.39400000   
    26       H         -4.75000000  *   3.49400000  *  -3.40300000   
    27       H         -3.34000000  *   5.41400000  *  -2.67200000   
    28       H         -4.81300000  *   5.81700000  *  -3.56400000   
    29       H         -5.56800000  *   6.02200000  *  -0.85800000   
    30       H         -3.20700000  *   5.90500000  *  -0.14600000   
    31       H         -2.84100000  *   7.30400000  *  -1.18300000   
    32       H         -3.92900000  *   7.47700000  *   0.19700000   
    33       H         -4.60700000  *   8.20900000  *  -2.73600000   
    34       H         -6.25500000  *   7.54400000  *  -2.65700000   
    35       H         -5.59200000  *   8.44500000  *  -1.28100000   
    36       N         -4.35400000  *   3.45500000  *  -0.11100000   
    37       C         -3.69000000  *   2.73800000  *   0.98100000   
    38       C         -4.10200000  *   1.25600000  *   1.07400000   
    39       O         -3.29100000  *   0.40900000  *   1.44200000   
    40       C         -3.96400000  *   3.47200000  *   2.30200000   
    41       C         -2.82400000  *   3.33900000  *   3.29000000   
    42       C         -2.74600000  *   2.21700000  *   4.13800000   
    43       C         -1.82000000  *   4.32600000  *   3.33200000   
    44       C         -1.65700000  *   2.07600000  *   5.01800000   
    45       C         -0.72500000  *   4.18500000  *   4.20500000   
    46       C         -0.63900000  *   3.05300000  *   5.04300000   
    47       O          0.43300000  *   2.88100000  *   5.86100000   
    48       H         -4.93400000  *   4.24500000  *   0.12000000   
    49       H         -2.61500000  *   2.76800000  *   0.79600000   
    50       H         -4.11700000  *   4.51300000  *   2.09100000   
    51       H         -4.88600000  *   3.09600000  *   2.75000000   
    52       H         -3.51300000  *   1.45600000  *   4.10100000   
    53       H         -1.87700000  *   5.20000000  *   2.69500000   
    54       H         -1.57600000  *   1.22100000  *   5.66900000   
    55       H          0.03300000  *   4.95200000  *   4.23300000   
    56       H          1.18700000  *   3.39500000  *   5.56700000   
    57       N         -5.34200000  *   0.92500000  *   0.68900000   
    58       C         -5.85700000  *  -0.44900000  *   0.61300000   
    59       C         -5.08900000  *  -1.22100000  *  -0.47000000   
    60       O         -4.62100000  *  -2.33400000  *  -0.22600000   
    61       C         -7.38600000  *  -0.46600000  *   0.34300000   
    62       C         -8.19700000  *   0.54000000  *   1.19700000   
    63       C         -7.95900000  *  -1.88400000  *   0.50100000   
    64       C         -8.01900000  *   0.41200000  *   2.71500000   
    65       H         -5.90600000  *   1.65600000  *   0.28300000   
    66       H         -5.67000000  *  -0.94100000  *   1.56800000   
    67       H         -7.55400000  *  -0.19200000  *  -0.69700000   
    68       H         -7.90000000  *   1.53100000  *   0.91200000   
    69       H         -9.25700000  *   0.42400000  *   0.96400000   
    70       H         -7.50900000  *  -2.55500000  *  -0.23200000   
    71       H         -7.75900000  *  -2.27100000  *   1.50100000   
    72       H         -9.03600000  *  -1.87100000  *   0.33200000   
    73       H         -8.30600000  *  -0.58500000  *   3.04900000   
    74       H         -6.98300000  *   0.60600000  *   2.99500000   
    75       H         -8.65600000  *   1.14400000  *   3.21300000   
    76       N         -4.90700000  *  -0.60100000  *  -1.64500000   
    77       C         -4.12200000  *  -1.16700000  *  -2.74300000   
    78       C         -2.62900000  *  -1.32100000  *  -2.39000000   
    79       O         -1.98600000  *  -2.24000000  *  -2.88400000   
    80       C         -4.29200000  *  -0.31300000  *  -4.01300000   
    81       C         -4.24400000  *  -1.17100000  *  -5.29000000   
    82       C         -5.57600000  *  -1.86000000  *  -5.58500000   
    83       N         -6.53200000  *  -1.14600000  *  -6.15200000   
    84       O         -5.76900000  *  -3.04400000  *  -5.33500000   
    85       H         -5.32700000  *   0.31800000  *  -1.76300000   
    86       H         -4.51700000  *  -2.16200000  *  -2.94000000   
    87       H         -5.23800000  *   0.19100000  *  -3.96900000   
    88       H         -3.49200000  *   0.42900000  *  -4.05300000   
    89       H         -3.99300000  *  -0.53900000  *  -6.12000000   
    90       H         -3.45800000  *  -1.92300000  *  -5.20500000   
    91       H         -6.38900000  *  -0.18400000  *  -6.40800000   
    92       H         -7.39200000  *  -1.63500000  *  -6.33500000   
    93       N         -2.07400000  *  -0.45900000  *  -1.52800000   
    94       C         -0.71600000  *  -0.63100000  *  -0.99300000   
    95       C         -0.63100000  *  -1.76600000  *   0.04400000   
    96       O          0.29500000  *  -2.57900000  *  -0.00400000   
    97       C         -0.22100000  *   0.70300000  *  -0.41700000   
    98       C          1.14800000  *   0.65200000  *   0.19400000   
    99       C          2.31900000  *   0.66400000  *  -0.48200000   
   100       C          1.50800000  *   0.56400000  *   1.60600000   
   101       C          2.92800000  *   0.51500000  *   1.71000000   
   102       C          0.77900000  *   0.52400000  *   2.81200000   
   103       N          3.37100000  *   0.56000000  *   0.41100000   
   104       C          3.59900000  *   0.44500000  *   2.93800000   
   105       C          1.43900000  *   0.43300000  *   4.05300000   
   106       C          2.84200000  *   0.40700000  *   4.12000000   
   107       H         -2.62400000  *   0.34300000  *  -1.24200000   
   108       H         -0.05200000  *  -0.90800000  *  -1.81300000   
   109       H         -0.20600000  *   1.42500000  *  -1.21100000   
   110       H         -0.92100000  *   1.04400000  *   0.34400000   
   111       H          2.41200000  *   0.73300000  *  -1.55800000   
   112       H          4.36000000  *   0.53600000  *   0.15600000   
   113       H         -0.29900000  *   0.57100000  *   2.77300000   
   114       H          4.67900000  *   0.41800000  *   2.96100000   
   115       H          0.86200000  *   0.40000000  *   4.96600000   
   116       H          3.33400000  *   0.36000000  *   5.08100000   
   117       N         -1.60000000  *  -1.86000000  *   0.96700000   
   118       C         -1.64100000  *  -2.93200000  *   1.96300000   
   119       C         -1.84700000  *  -4.31900000  *   1.34200000   
   120       O         -1.14400000  *  -5.24800000  *   1.74200000   
   121       C         -2.71000000  *  -2.64500000  *   3.03300000   
   122       C         -2.30100000  *  -1.57900000  *   4.06900000   
   123       C         -3.47500000  *  -1.32300000  *   5.01800000   
   124       C         -1.09300000  *  -2.00700000  *   4.91400000   
   125       H         -2.31600000  *  -1.13700000  *   0.99400000   
   126       H         -0.66600000  *  -2.97800000  *   2.44500000   
   127       H         -3.60000000  *  -2.30800000  *   2.53700000   
   128       H         -2.92100000  *  -3.57100000  *   3.57200000   
   129       H         -2.06100000  *  -0.64900000  *   3.56000000   
   130       H         -4.34300000  *  -0.99200000  *   4.44900000   
   131       H         -3.72500000  *  -2.23700000  *   5.56000000   
   132       H         -3.21100000  *  -0.54900000  *   5.73900000   
   133       H         -1.27000000  *  -2.98900000  *   5.35400000   
   134       H         -0.19500000  *  -2.04500000  *   4.30000000   
   135       H         -0.92200000  *  -1.28600000  *   5.71200000   
   136       N         -2.75300000  *  -4.48100000  *   0.36000000   
   137       C         -3.02400000  *  -5.79100000  *  -0.26900000   
   138       C         -1.79600000  *  -6.42700000  *  -0.93700000   
   139       O         -1.71900000  *  -7.64800000  *  -1.03000000   
   140       C         -4.22400000  *  -5.69700000  *  -1.23200000   
   141       C         -3.93000000  *  -5.00900000  *  -2.57700000   
   142       C         -3.68200000  *  -5.98600000  *  -3.73600000   
   143       C         -3.49400000  *  -5.19900000  *  -5.03900000   
   144       N         -4.56300000  *  -5.48300000  *  -6.02300000   
   145       H         -3.32100000  *  -3.67500000  *   0.09700000   
   146       H         -3.30900000  *  -6.47800000  *   0.52900000   
   147       H         -4.56500000  *  -6.69400000  *  -1.43600000   
   148       H         -5.01900000  *  -5.14300000  *  -0.73100000   
   149       H         -4.76900000  *  -4.39000000  *  -2.83000000   
   150       H         -3.06200000  *  -4.36800000  *  -2.46900000   
   151       H         -2.79900000  *  -6.56200000  *  -3.53600000   
   152       H         -4.52400000  *  -6.67400000  *  -3.81800000   
   153       H         -3.50200000  *  -4.15000000  *  -4.81300000   
   154       H         -2.51100000  *  -5.43900000  *  -5.45700000   
   155       H         -4.62100000  *  -6.47400000  *  -6.21100000   
   156       H         -5.44200000  *  -5.12400000  *  -5.65700000   
   157       H         -4.38200000  *  -4.98300000  *  -6.88100000   
   158       N         -0.82800000  *  -5.60700000  *  -1.35500000   
   159       C          0.46600000  *  -6.01600000  *  -1.90500000   
   160       C          1.48100000  *  -6.46400000  *  -0.83200000   
   161       O          2.54500000  *  -6.97100000  *  -1.19400000   
   162       C          1.03300000  *  -4.83900000  *  -2.72400000   
   163       C          0.67200000  *  -4.90600000  *  -4.21000000   
   164       O         -0.53200000  *  -5.05100000  *  -4.52200000   
   165       O          1.62700000  *  -4.81500000  *  -5.01700000   
   166       H         -1.01000000  *  -4.61600000  *  -1.29100000   
   167       H          0.31900000  *  -6.86700000  *  -2.57400000   
   168       H          0.64400000  *  -3.92400000  *  -2.32000000   
   169       H          2.11600000  *  -4.83700000  *  -2.65000000   
   170       N          1.18500000  *  -6.27800000  *   0.46400000   
   171       C          2.06000000  *  -6.61800000  *   1.59300000   
   172       C          2.62800000  *  -5.41200000  *   2.35300000   
   173       O          3.49600000  *  -5.59400000  *   3.20800000   
   174       H          0.26500000  *  -5.90800000  *   0.69300000   
   175       H          1.48600000  *  -7.21400000  *   2.30400000   
   176       H          2.89700000  *  -7.22800000  *   1.25200000   
   177       N          2.17200000  *  -4.18700000  *   2.05500000   
   178       C          2.62600000  *  -2.96700000  *   2.72300000   
   179       C          4.15700000  *  -2.80200000  *   2.65400000   
   180       O          4.71000000  *  -2.82900000  *   1.55100000   
   181       H          1.48100000  *  -4.08900000  *   1.31900000   
   182       H          2.16400000  *  -2.10900000  *   2.23700000   
   183       H          2.28000000  *  -2.99700000  *   3.75300000   
   184       N          4.87100000  *  -2.65100000  *   3.79400000   
   185       C          6.33300000  *  -2.53300000  *   3.80600000   
   186       C          7.05800000  *  -3.72900000  *   3.16500000   
   187       O          8.13900000  *  -3.56200000  *   2.60100000   
   188       C          6.74000000  *  -2.38700000  *   5.27900000   
   189       C          5.46000000  *  -1.95200000  *   5.98700000   
   190       C          4.36200000  *  -2.61500000  *   5.16000000   
   191       H          6.61100000  *  -1.62600000  *   3.26700000   
   192       H          7.09100000  *  -3.32300000  *   5.67000000   
   193       H          7.53100000  *  -1.64700000  *   5.40300000   
   194       H          5.44300000  *  -2.30200000  *   7.00100000   
   195       H          5.35800000  *  -0.86700000  *   5.92900000   
   196       H          4.17300000  *  -3.60900000  *   5.51600000   
   197       H          3.44000000  *  -2.04200000  *   5.24600000   
   198       N          6.46300000  *  -4.92900000  *   3.20500000   
   199       C          7.04900000  *  -6.17900000  *   2.70400000   
   200       C          6.89700000  *  -6.36900000  *   1.18500000   
   201       O          7.02500000  *  -7.48800000  *   0.69700000   
   202       C          6.45800000  *  -7.37100000  *   3.47200000   
   203       O          6.76300000  *  -7.26400000  *   4.85000000   
   204       H          5.53500000  *  -4.99900000  *   3.61300000   
   205       H          8.12100000  *  -6.15900000  *   2.90300000   
   206       H          5.39300000  *  -7.38200000  *   3.34400000   
   207       H          6.88000000  *  -8.30200000  *   3.09300000   
   208       H          7.70700000  *  -7.39400000  *   4.97000000   
   209       N          6.63700000  *  -5.29000000  *   0.43400000   
   210       C          6.38900000  *  -5.31500000  *  -1.01500000   
   211       C          7.33200000  *  -4.40500000  *  -1.82300000   
   212       O          7.08200000  *  -4.12300000  *  -2.99300000   
   213       C          4.91400000  *  -4.99300000  *  -1.26500000   
   214       O          4.43100000  *  -5.74300000  *  -2.35800000   
   215       H          6.50900000  *  -4.41500000  *   0.93000000   
   216       H          6.56200000  *  -6.32900000  *  -1.37800000   
   217       H          4.34400000  *  -5.23600000  *  -0.38900000   
   218       H          4.77800000  *  -3.93400000  *  -1.45700000   
   219       H          3.71400000  *  -6.32400000  *  -1.98700000   
   220       N          8.41900000  *  -3.92000000  *  -1.20200000   
   221       C          9.45100000  *  -3.11600000  *  -1.87000000   
   222       C          8.98400000  *  -1.72500000  *  -2.31600000   
   223       O          9.53900000  *  -1.17700000  *  -3.26700000   
   224       H          8.57300000  *  -4.21000000  *  -0.24600000   
   225       H         10.29700000  *  -2.98700000  *  -1.19400000   
   226       H          9.80500000  *  -3.65200000  *  -2.75200000   
   227       N          7.95600000  *  -1.16400000  *  -1.66000000   
   228       C          7.28900000  *   0.08400000  *  -2.05400000   
   229       C          6.85500000  *   0.91600000  *  -0.82900000   
   230       O          6.22200000  *   0.36600000  *   0.07600000   
   231       C          6.11000000  *  -0.24300000  *  -2.99400000   
   232       C          5.04600000  *  -1.17100000  *  -2.37800000   
   233       C          3.92300000  *  -1.59200000  *  -3.33800000   
   234       N          4.25100000  *  -2.81100000  *  -4.10000000   
   235       C          4.85900000  *  -2.91400000  *  -5.27400000   
   236       N          5.28900000  *  -1.86400000  *  -5.93700000   
   237       N          5.03500000  *  -4.09500000  *  -5.80900000   
   238       H          7.57900000  *  -1.67600000  *  -0.87400000   
   239       H          8.00900000  *   0.66300000  *  -2.63000000   
   240       H          5.63400000  *   0.67800000  *  -3.26900000   
   241       H          6.52400000  *  -0.72000000  *  -3.88000000   
   242       H          5.53800000  *  -2.05900000  *  -2.03100000   
   243       H          4.57900000  *  -0.65200000  *  -1.54900000   
   244       H          3.03300000  *  -1.77400000  *  -2.76600000   
   245       H          3.66900000  *  -0.76500000  *  -4.00300000   
   246       H          3.96300000  *  -3.69400000  *  -3.69800000   
   247       H          5.15000000  *  -0.96200000  *  -5.52100000   
   248       H          5.76100000  *  -1.96200000  *  -6.81500000   
   249       H          4.64900000  *  -4.89400000  *  -5.32700000   
   250       H          5.50800000  *  -4.20500000  *  -6.68400000   
   251       N          7.15600000  *   2.23000000  *  -0.78000000   
   252       C          6.78200000  *   3.08800000  *   0.34500000   
   253       C          5.26100000  *   3.33100000  *   0.39500000   
   254       O          4.58600000  *   3.16500000  *  -0.62400000   
   255       C          7.55400000  *   4.39400000  *   0.11900000   
   256       C          7.67700000  *   4.47400000  *  -1.40100000   
   257       C          7.82000000  *   3.01000000  *  -1.81600000   
   258       H          7.10700000  *   2.62800000  *   1.27900000   
   259       H          7.00900000  *   5.23400000  *   0.50500000   
   260       H          8.54800000  *   4.30800000  *   0.56100000   
   261       H          6.80000000  *   4.91400000  *  -1.83600000   
   262       H          8.54000000  *   5.06600000  *  -1.70700000   
   263       H          7.34900000  *   2.84400000  *  -2.76600000   
   264       H          8.87600000  *   2.73900000  *  -1.85500000   
   265       N          4.71000000  *   3.73900000  *   1.55500000   
   266       C          3.28700000  *   4.03100000  *   1.68600000   
   267       C          2.90100000  *   5.30500000  *   0.91300000   
   268       O          3.68400000  *   6.25600000  *   0.87100000   
   269       C          3.03500000  *   4.19000000  *   3.18700000   
   270       C          4.38500000  *   4.65500000  *   3.72900000   
   271       C          5.39300000  *   3.94900000  *   2.82300000   
   272       H          2.71900000  *   3.18100000  *   1.31600000   
   273       H          2.27400000  *   4.92400000  *   3.37200000   
   274       H          2.78100000  *   3.22300000  *   3.61800000   
   275       H          4.48200000  *   5.72100000  *   3.65400000   
   276       H          4.51800000  *   4.37700000  *   4.77500000   
   277       H          6.26200000  *   4.56200000  *   2.68200000   
   278       H          5.66200000  *   2.98300000  *   3.25300000   
   279       N          1.68800000  *   5.36000000  *   0.33600000   
   280       C          1.18500000  *   6.54300000  *  -0.35300000   
   281       C          0.71500000  *   7.60700000  *   0.65500000   
   282       O         -0.12400000  *   7.32400000  *   1.51300000   
   283       C          0.04800000  *   6.01400000  *  -1.22900000   
   284       C         -0.51900000  *   4.85200000  *  -0.41200000   
   285       C          0.71600000  *   4.27500000  *   0.27200000   
   286       H          1.96100000  *   6.96600000  *  -0.99100000   
   287       H         -0.69700000  *   6.77000000  *  -1.38900000   
   288       H          0.46300000  *   5.63000000  *  -2.16200000   
   289       H         -1.23200000  *   5.20100000  *   0.31000000   
   290       H         -1.01900000  *   4.11400000  *  -1.04100000   
   291       H          0.47000000  *   3.93700000  *   1.26000000   
   292       H          1.12100000  *   3.46100000  *  -0.32900000   
   293       N          1.27100000  *   8.82200000  *   0.54900000   
   294       C          0.85200000  *  10.02700000  *   1.28500000   
   295       C         -0.40600000  *  10.65700000  *   0.68300000   
   296       O         -0.38700000  *  10.91600000  *  -0.54000000   
   297       C          1.97200000  *  11.07100000  *   1.28400000   
   298       O          3.12000000  *  10.54100000  *   1.91100000   
   299       O         -1.34100000  *  10.90300000  *   1.47300000   
   300       H          1.96900000  *   8.96100000  *  -0.16500000   
   301       H          0.60100000  *   9.76000000  *   2.31000000   
   302       H          2.21000000  *  11.33800000  *   0.27200000   
   303       H          1.63600000  *  11.95900000  *   1.82400000   
   304       H          2.83100000  *  10.04000000  *   2.67600000   

                             CARTESIAN COORDINATES

   1    N       -8.901000000     4.127000000    -0.555000000
   2    C       -8.608000000     3.135000000    -1.618000000
   3    C       -7.117000000     2.964000000    -1.897000000
   4    O       -6.634000000     1.849000000    -1.758000000
   5    C       -9.437000000     3.396000000    -2.889000000
   6    C      -10.915000000     3.130000000    -2.611000000
   7    N      -11.806000000     3.406000000    -3.543000000
   8    O      -11.269000000     2.700000000    -1.524000000
   9    H       -8.930000000     2.162000000    -1.239000000
  10    H       -9.310000000     4.417000000    -3.193000000
  11    H       -9.108000000     2.719000000    -3.679000000
  12    H      -11.572000000     3.791000000    -4.444000000
  13    H      -12.757000000     3.183000000    -3.294000000
  14    H       -8.330000000     3.957000000     0.261000000
  15    H       -8.740000000     5.068000000    -0.889000000
  16    H       -9.877000000     4.041000000    -0.293000000
  17    N       -6.379000000     4.031000000    -2.228000000
  18    C       -4.923000000     4.002000000    -2.452000000
  19    C       -4.136000000     3.187000000    -1.404000000
  20    O       -3.391000000     2.274000000    -1.760000000
  21    C       -4.411000000     5.450000000    -2.619000000
  22    C       -4.795000000     6.450000000    -1.495000000
  23    C       -3.612000000     6.803000000    -0.599000000
  24    C       -5.351000000     7.748000000    -2.084000000
  25    H       -6.821000000     4.923000000    -2.394000000
  26    H       -4.750000000     3.494000000    -3.403000000
  27    H       -3.340000000     5.414000000    -2.672000000
  28    H       -4.813000000     5.817000000    -3.564000000
  29    H       -5.568000000     6.022000000    -0.858000000
  30    H       -3.207000000     5.905000000    -0.146000000
  31    H       -2.841000000     7.304000000    -1.183000000
  32    H       -3.929000000     7.477000000     0.197000000
  33    H       -4.607000000     8.209000000    -2.736000000
  34    H       -6.255000000     7.544000000    -2.657000000
  35    H       -5.592000000     8.445000000    -1.281000000
  36    N       -4.354000000     3.455000000    -0.111000000
  37    C       -3.690000000     2.738000000     0.981000000
  38    C       -4.102000000     1.256000000     1.074000000
  39    O       -3.291000000     0.409000000     1.442000000
  40    C       -3.964000000     3.472000000     2.302000000
  41    C       -2.824000000     3.339000000     3.290000000
  42    C       -2.746000000     2.217000000     4.138000000
  43    C       -1.820000000     4.326000000     3.332000000
  44    C       -1.657000000     2.076000000     5.018000000
  45    C       -0.725000000     4.185000000     4.205000000
  46    C       -0.639000000     3.053000000     5.043000000
  47    O        0.433000000     2.881000000     5.861000000
  48    H       -4.934000000     4.245000000     0.120000000
  49    H       -2.615000000     2.768000000     0.796000000
  50    H       -4.117000000     4.513000000     2.091000000
  51    H       -4.886000000     3.096000000     2.750000000
  52    H       -3.513000000     1.456000000     4.101000000
  53    H       -1.877000000     5.200000000     2.695000000
  54    H       -1.576000000     1.221000000     5.669000000
  55    H        0.033000000     4.952000000     4.233000000
  56    H        1.187000000     3.395000000     5.567000000
  57    N       -5.342000000     0.925000000     0.689000000
  58    C       -5.857000000    -0.449000000     0.613000000
  59    C       -5.089000000    -1.221000000    -0.470000000
  60    O       -4.621000000    -2.334000000    -0.226000000
  61    C       -7.386000000    -0.466000000     0.343000000
  62    C       -8.197000000     0.540000000     1.197000000
  63    C       -7.959000000    -1.884000000     0.501000000
  64    C       -8.019000000     0.412000000     2.715000000
  65    H       -5.906000000     1.656000000     0.283000000
  66    H       -5.670000000    -0.941000000     1.568000000
  67    H       -7.554000000    -0.192000000    -0.697000000
  68    H       -7.900000000     1.531000000     0.912000000
  69    H       -9.257000000     0.424000000     0.964000000
  70    H       -7.509000000    -2.555000000    -0.232000000
  71    H       -7.759000000    -2.271000000     1.501000000
  72    H       -9.036000000    -1.871000000     0.332000000
  73    H       -8.306000000    -0.585000000     3.049000000
  74    H       -6.983000000     0.606000000     2.995000000
  75    H       -8.656000000     1.144000000     3.213000000
  76    N       -4.907000000    -0.601000000    -1.645000000
  77    C       -4.122000000    -1.167000000    -2.743000000
  78    C       -2.629000000    -1.321000000    -2.390000000
  79    O       -1.986000000    -2.240000000    -2.884000000
  80    C       -4.292000000    -0.313000000    -4.013000000
  81    C       -4.244000000    -1.171000000    -5.290000000
  82    C       -5.576000000    -1.860000000    -5.585000000
  83    N       -6.532000000    -1.146000000    -6.152000000
  84    O       -5.769000000    -3.044000000    -5.335000000
  85    H       -5.327000000     0.318000000    -1.763000000
  86    H       -4.517000000    -2.162000000    -2.940000000
  87    H       -5.238000000     0.191000000    -3.969000000
  88    H       -3.492000000     0.429000000    -4.053000000
  89    H       -3.993000000    -0.539000000    -6.120000000
  90    H       -3.458000000    -1.923000000    -5.205000000
  91    H       -6.389000000    -0.184000000    -6.408000000
  92    H       -7.392000000    -1.635000000    -6.335000000
  93    N       -2.074000000    -0.459000000    -1.528000000
  94    C       -0.716000000    -0.631000000    -0.993000000
  95    C       -0.631000000    -1.766000000     0.044000000
[...]
  172          C           0.567647        3.4324     1.08536     2.34699
  173          O          -0.623520        6.6235     1.88422     4.73930
  174          H           0.344725        0.6553     0.65528
  175          H           0.175980        0.8240     0.82402
  176          H           0.199250        0.8008     0.80075
  177          N          -0.519161        5.5192     1.53984     3.97932
  178          C          -0.124838        4.1248     1.06897     3.05587
  179          C           0.577070        3.4229     1.08557     2.33736
  180          O          -0.561545        6.5615     1.88818     4.67337
  181          H           0.343630        0.6564     0.65637
  182          H           0.184462        0.8155     0.81554
  183          H           0.149545        0.8505     0.85046
  184          N          -0.495012        5.4950     1.56411     3.93090
  185          C           0.022007        3.9780     1.07898     2.89901
  186          C           0.540999        3.4590     1.08625     2.37275
  187          O          -0.586865        6.5869     1.88627     4.70059
  188          C          -0.286816        4.2868     1.06042     3.22639
  189          C          -0.280509        4.2805     1.05989     3.22062
  190          C          -0.069341        4.0693     1.05695     3.01239
  191          H           0.179700        0.8203     0.82030
  192          H           0.159210        0.8408     0.84079
  193          H           0.159491        0.8405     0.84051
  194          H           0.152630        0.8474     0.84737
  195          H           0.149487        0.8505     0.85051
  196          H           0.151387        0.8486     0.84861
  197          H           0.142407        0.8576     0.85759
  198          N          -0.548336        5.5483     1.54916     3.99918
  199          C          -0.035507        4.0355     1.08286     2.95264
  200          C           0.542722        3.4573     1.08394     2.37334
  201          O          -0.536734        6.5367     1.88725     4.64948
  202          C          -0.012056        4.0121     1.08140     2.93066
  203          O          -0.521095        6.5211     1.84745     4.67364
  204          H           0.349427        0.6506     0.65057
  205          H           0.172359        0.8276     0.82764
  206          H           0.169681        0.8303     0.83032
  207          H           0.150820        0.8492     0.84918
  208          H           0.307810        0.6922     0.69219
  209          N          -0.577456        5.5775     1.55079     4.02666
  210          C          -0.015422        4.0154     1.08026     2.93516
  211          C           0.540752        3.4592     1.09303     2.36622
  212          O          -0.569161        6.5692     1.88608     4.68308
  213          C          -0.003239        4.0032     1.07108     2.93215
  214          O          -0.591218        6.5912     1.85844     4.73278
  215          H           0.333451        0.6665     0.66655
  216          H           0.213687        0.7863     0.78631
  217          H           0.144654        0.8553     0.85535
  218          H           0.121289        0.8787     0.87871
  219          H           0.377047        0.6230     0.62295
  220          N          -0.571103        5.5711     1.54810     4.02300
  221          C          -0.119012        4.1190     1.07100     3.04801
  222          C           0.557813        3.4422     1.08490     2.35729
  223          O          -0.567102        6.5671     1.88712     4.67998
  224          H           0.336080        0.6639     0.66392
  225          H           0.172561        0.8274     0.82744
  226          H           0.185420        0.8146     0.81458
  227          N          -0.552735        5.5527     1.54534     4.00740
  228          C           0.031649        3.9684     1.07180     2.89655
  229          C           0.558458        3.4415     1.08602     2.35552
  230          O          -0.598460        6.5985     1.88455     4.71391
  231          C          -0.303565        4.3036     1.06180     3.24176
  232          C          -0.285865        4.2859     1.06011     3.22576
  233          C          -0.045445        4.0454     1.06049     2.98495
  234          N          -0.472203        5.4722     1.52516     3.94705
  235          C           0.606269        3.3937     0.97888     2.41486
  236          N          -0.617947        5.6179     1.50377     4.11417
  237          N          -0.547563        5.5476     1.50144     4.04613
  238          H           0.334615        0.6654     0.66539
  239          H           0.166491        0.8335     0.83351
  240          H           0.140627        0.8594     0.85937
  241          H           0.155898        0.8441     0.84410
  242          H           0.182033        0.8180     0.81797
  243          H           0.169460        0.8305     0.83054
  244          H           0.174451        0.8255     0.82555
  245          H           0.128612        0.8714     0.87139
  246          H           0.368677        0.6313     0.63132
  247          H           0.328585        0.6714     0.67141
  248          H           0.333110        0.6669     0.66689
  249          H           0.368884        0.6311     0.63112
  250          H           0.327909        0.6721     0.67209
  251          N          -0.439934        5.4399     1.55726     3.88268
  252          C           0.016157        3.9838     1.07612     2.90773
  253          C           0.542649        3.4574     1.08572     2.37163
  254          O          -0.572220        6.5722     1.88772     4.68450
  255          C          -0.278160        4.2782     1.06342     3.21474
  256          C          -0.271554        4.2716     1.05868     3.21288
  257          C          -0.069864        4.0699     1.06046     3.00940
  258          H           0.161297        0.8387     0.83870
  259          H           0.172850        0.8271     0.82715
  260          H           0.156569        0.8434     0.84343
  261          H           0.164436        0.8356     0.83556
  262          H           0.155993        0.8440     0.84401
  263          H           0.137902        0.8621     0.86210
  264          H           0.147416        0.8526     0.85258
  265          N          -0.455680        5.4557     1.55535     3.90033
  266          C           0.010251        3.9897     1.07392     2.91583
  267          C           0.539355        3.4606     1.08212     2.37853
  268          O          -0.523788        6.5238     1.88959     4.63420
  269          C          -0.284317        4.2843     1.06147     3.22285
  270          C          -0.263361        4.2634     1.05796     3.20540
  271          C          -0.060130        4.0601     1.05924     3.00089
  272          H           0.158395        0.8416     0.84161
  273          H           0.160645        0.8394     0.83935
  274          H           0.148736        0.8513     0.85126
  275          H           0.172028        0.8280     0.82797
  276          H           0.141226        0.8588     0.85877
  277          H           0.141775        0.8582     0.85822
  278          H           0.134897        0.8651     0.86510
  279          N          -0.462584        5.4626     1.55562     3.90697
  280          C           0.018372        3.9816     1.07558     2.90605
  281          C           0.533266        3.4667     1.07398     2.39275
  282          O          -0.597837        6.5978     1.88595     4.71188
  283          C          -0.273100        4.2731     1.06126     3.21184
  284          C          -0.285633        4.2856     1.05764     3.22800
  285          C          -0.058145        4.0581     1.05750     3.00064
  286          H           0.157749        0.8423     0.84225
  287          H           0.155255        0.8447     0.84474
  288          H           0.142374        0.8576     0.85763
  289          H           0.152478        0.8475     0.84752
  290          H           0.118215        0.8818     0.88179
  291          H           0.136993        0.8630     0.86301
  292          H           0.140309        0.8597     0.85969
  293          N          -0.485925        5.4859     1.54232     3.94361
  294          C          -0.114968        4.1150     1.09569     3.01928
  295          C           0.683106        3.3169     1.07258     2.24431
  296          O          -0.748772        6.7488     1.89019     4.85858
  297          C          -0.011133        4.0111     1.07975     2.93138
  298          O          -0.552765        6.5528     1.84462     4.70814
  299          O          -0.729531        6.7295     1.89050     4.83903
  300          H           0.308217        0.6918     0.69178
  301          H           0.163522        0.8365     0.83648
  302          H           0.153271        0.8467     0.84673
  303          H           0.137226        0.8628     0.86277
  304          H           0.312393        0.6876     0.68761
 DIPOLE           X         Y         Z       TOTAL
 POINT-CHG.   -57.982    -4.371   -24.395    63.057
 HYBRID        -3.580     1.195    -1.782     4.174
 SUM          -61.563    -3.175   -26.177    66.972


          ATOMIC ORBITAL ELECTRON POPULATIONS

     Atom    s        px        py        pz   
    1  N   1.45524   1.27590   1.21272   1.21540
    2  C   1.09599   1.06127   1.03704   0.94821
    3  C   1.06573   0.82959   0.80590   0.79327
    4  O   1.88394   1.75028   1.30961   1.56727
    5  C   1.07271   1.06316   1.18617   1.05884
    6  C   1.05785   0.83272   0.75866   0.79897
    7  N   1.52107   1.21167   1.60391   1.24283
    8  O   1.88349   1.81517   1.54137   1.33053
    9  H   0.76228
   10  H   0.82823
   11  H   0.78937
   12  H   0.67317
   13  H   0.65564
   14  H   0.70435
   15  H   0.71873
   16  H   0.67717
   17  N   1.55116   1.17488   1.18358   1.62900
   18  C   1.09141   0.74296   1.08140   1.10353
   19  C   1.07897   0.78641   0.79731   0.78985
   20  O   1.88790   1.45408   1.37090   1.81339
   21  C   1.07206   1.17561   0.94326   1.12822
   22  C   1.05452   1.05905   0.98181   0.98970
   23  C   1.05569   1.07615   1.17604   1.12771
   24  C   1.05708   1.14526   1.07364   1.17172
   25  H   0.68534
   26  H   0.82365
   27  H   0.79974
   28  H   0.84388
   29  H   0.92765
   30  H   0.85920
   31  H   0.80754
   32  H   0.81672
   33  H   0.81121
   34  H   0.89745
   35  H   0.82155
   36  N   1.55247   1.50522   1.38409   1.13499
   37  C   1.08278   1.08904   0.92708   0.87904
   38  C   1.08931   0.75144   0.88001   0.73248
   39  O   1.88421   1.54904   1.56383   1.53786
   40  C   1.05597   1.11569   1.12190   0.99715
   41  C   1.05851   0.98923   1.03379   1.02313
   42  C   1.08977   1.01930   1.01054   0.96199
   43  C   1.09496   0.94593   1.02442   0.99164
   44  C   1.07787   1.01156   1.07982   1.08294
   45  C   1.08599   1.08322   1.05610   1.04318
   46  C   1.08313   0.83152   0.93539   0.84071
   47  O   1.82738   1.33747   1.73731   1.57294
   48  H   0.69302
   49  H   0.78894
   50  H   0.84317
   51  H   0.85809
   52  H   0.85635
   53  H   0.82231
   54  H   0.83343
   55  H   0.81721
   56  H   0.66282
   57  N   1.55381   1.24201   1.16611   1.62396
   58  C   1.08437   0.97554   0.82036   1.10394
   59  C   1.08462   0.77011   0.80316   0.78785
   60  O   1.88348   1.56728   1.29486   1.81545
   61  C   1.06528   0.94988   1.02143   1.08945
   62  C   1.05452   1.11556   1.05892   1.03135
   63  C   1.05533   1.15560   1.02884   1.19476
   64  C   1.05195   1.17931   1.18718   1.00608
   65  H   0.70402
   66  H   0.80207
   67  H   0.87170
   68  H   0.92105
   69  H   0.85817
   70  H   0.83714
   71  H   0.83180
   72  H   0.84972
   73  H   0.83451
   74  H   0.84251
   75  H   0.85964
   76  N   1.55295   1.52589   1.29226   1.20916
   77  C   1.08070   0.98123   1.06874   0.85620
   78  C   1.07782   0.84666   0.78401   0.76794
   79  O   1.88848   1.66378   1.38392   1.56264
   80  C   1.05910   1.17194   1.07456   0.97459
   81  C   1.06774   1.06257   1.13660   1.08231
   82  C   1.07636   0.82809   0.78868   0.70170
   83  N   1.52770   1.26119   1.23212   1.61164
   84  O   1.87805   1.84668   1.29657   1.63696
   85  H   0.67685
   86  H   0.81553
   87  H   0.86684
   88  H   0.82189
   89  H   0.83803
   90  H   0.78502
   91  H   0.68525
   92  H   0.68067
   93  N   1.54998   1.22779   1.32536   1.46514
   94  C   1.07753   0.83248   1.00317   1.04669
   95  C   1.08603   0.75656   0.81731   0.77947
   96  O   1.88689   1.42043   1.49423   1.77139
   97  C   1.04689   1.05950   1.02855   1.13180
   98  C   1.04463   0.94817   1.18892   0.97310
   99  C   1.07487   0.89132   1.03044   1.00282
  100  C   1.06329   0.97251   1.08274   0.96299
  101  C   1.05098   0.96364   1.02508   0.85499
  102  C   1.08611   1.07856   0.98245   0.97090
  103  N   1.51244   1.17533   1.53524   1.10273
  104  C   1.07679   1.08783   1.06853   0.96623
  105  C   1.08179   1.01145   1.06543   1.05299
  106  C   1.08292   1.00140   1.01115   1.04687
  107  H   0.67618
  108  H   0.81077
  109  H   0.84730
  110  H   0.84590
  111  H   0.83271
  112  H   0.64881
  113  H   0.85221
  114  H   0.83225
  115  H   0.84680
  116  H   0.85514
  117  N   1.55321   1.34752   1.32328   1.34888
  118  C   1.07426   1.11613   0.86685   0.91311
  119  C   1.09058   0.74676   0.86800   0.74425
  120  O   1.88413   1.53158   1.51451   1.66285
  121  C   1.06424   1.07390   1.12636   1.04500
  122  C   1.05378   0.97206   1.05397   0.98002
  123  C   1.05611   1.10092   1.17265   1.12595
  124  C   1.05559   1.09073   1.16917   1.13376
  125  H   0.66094
  126  H   0.81387
  127  H   0.85521
  128  H   0.83651
  129  H   0.85885
  130  H   0.87092
  131  H   0.85039
  132  H   0.85502
  133  H   0.84787
  134  H   0.84724
  135  H   0.85631
  136  N   1.55833   1.41836   1.19726   1.40084
  137  C   1.07947   1.00374   0.86617   1.03354
  138  C   1.07598   0.80909   0.81428   0.76132
  139  O   1.88672   1.80552   1.22418   1.62783
  140  C   1.06040   1.06425   1.14836   1.01588
  141  C   1.05570   1.17607   1.06802   0.97835
  142  C   1.05837   1.18276   1.06202   0.95882
  143  C   1.08553   0.98213   1.17586   0.96742
  144  N   1.45892   1.25630   1.22382   1.23348
  145  H   0.65523
  146  H   0.82542
  147  H   0.84144
  148  H   0.84831
  149  H   0.87685
  150  H   0.81347
  151  H   0.79285
  152  H   0.87425
  153  H   0.81279
  154  H   0.75490
  155  H   0.72163
  156  H   0.70633
  157  H   0.72877
  158  N   1.54748   1.20585   1.19656   1.59662
  159  C   1.07606   0.80252   1.08035   0.98140
  160  C   1.09512   0.82428   0.71656   0.78866
  161  O   1.87467   1.37267   1.54139   1.82279
  162  C   1.07891   1.15594   1.06508   1.13291
  163  C   1.06660   0.75036   0.64542   0.78244
  164  O   1.88631   1.35963   1.68772   1.87975
  165  O   1.88983   1.55178   1.67792   1.66660
  166  H   0.67553
  167  H   0.80715
  168  H   0.83460
  169  H   0.82206
  170  N   1.54801   1.26960   1.61482   1.11484
  171  C   1.07086   1.06660   1.04520   0.94055
  172  C   1.08536   0.76370   0.80574   0.77755
  173  O   1.88422   1.42679   1.86508   1.44743
  174  H   0.65528
  175  H   0.82402
  176  H   0.80075
  177  N   1.53984   1.45353   1.10410   1.42169
  178  C   1.06897   1.01207   0.94274   1.10106
  179  C   1.08557   0.85850   0.71954   0.75931
  180  O   1.88818   1.75836   1.57532   1.33969
  181  H   0.65637
  182  H   0.81554
  183  H   0.85046
  184  N   1.56411   1.11877   1.69645   1.11568
  185  C   1.07898   0.80009   1.07212   1.02680
  186  C   1.08625   0.80161   0.80767   0.76347
  187  O   1.88627   1.32249   1.85839   1.51971
  188  C   1.06042   1.06179   1.17394   0.99066
  189  C   1.05989   0.99349   1.13037   1.09676
  190  C   1.05695   1.05130   1.13827   0.82282
  191  H   0.82030
  192  H   0.84079
  193  H   0.84051
  194  H   0.84737
  195  H   0.85051
  196  H   0.84861
  197  H   0.85759
  198  N   1.54916   1.29014   1.12327   1.58577
  199  C   1.08286   1.09891   0.87427   0.97946
  200  C   1.08394   0.73372   0.78300   0.85662
  201  O   1.88725   1.56254   1.31744   1.76951
  202  C   1.08140   1.12726   1.01816   0.78524
  203  O   1.84745   1.40020   1.95959   1.31385
  204  H   0.65057
  205  H   0.82764
  206  H   0.83032
  207  H   0.84918
  208  H   0.69219
  209  N   1.55079   1.67858   1.21324   1.13484
  210  C   1.08026   1.01426   1.13257   0.78834
  211  C   1.09303   0.78308   0.76436   0.81878
  212  O   1.88608   1.77320   1.63887   1.27101
  213  C   1.07108   0.94611   1.02963   0.95641
  214  O   1.85844   1.66978   1.66044   1.40256
  215  H   0.66655
  216  H   0.78631
  217  H   0.85535
  218  H   0.87871
  219  H   0.62295
  220  N   1.54810   1.26858   1.51422   1.24020
  221  C   1.07100   0.96210   0.96785   1.11806
  222  C   1.08490   0.74924   0.83837   0.76968
  223  O   1.88712   1.61528   1.70070   1.36401
  224  H   0.66392
  225  H   0.82744
  226  H   0.81458
  227  N   1.54534   1.35956   1.26515   1.38269
  228  C   1.07180   1.00948   0.89235   0.99472
  229  C   1.08602   0.75298   0.76762   0.83491
  230  O   1.88455   1.49974   1.72703   1.48713
  231  C   1.06180   1.03671   1.11341   1.09164
  232  C   1.06011   1.02329   1.12774   1.07473
  233  C   1.06049   1.07049   0.89667   1.01779
  234  N   1.52516   1.54155   1.20845   1.19705
  235  C   0.97888   0.82817   0.78065   0.80603
  236  N   1.50377   1.63821   1.16256   1.31341
  237  N   1.50144   1.58312   1.14337   1.31964
  238  H   0.66539
  239  H   0.83351
  240  H   0.85937
  241  H   0.84410
  242  H   0.81797
  243  H   0.83054
  244  H   0.82555
  245  H   0.87139
  246  H   0.63132
  247  H   0.67141
  248  H   0.66689
  249  H   0.63112
  250  H   0.67209
  251  N   1.55726   1.53235   1.12844   1.22188
  252  C   1.07612   0.99079   0.95878   0.95816
  253  C   1.08572   0.86938   0.74143   0.76081
  254  O   1.88772   1.68921   1.59636   1.39893
  255  C   1.06342   1.12249   1.05214   1.04011
  256  C   1.05868   1.18398   1.01514   1.01376
  257  C   1.06046   1.07492   0.96239   0.97209
  258  H   0.83870
  259  H   0.82715
  260  H   0.84343
  261  H   0.83556
  262  H   0.84401
  263  H   0.86210
  264  H   0.85258
  265  N   1.55535   1.13355   1.62081   1.14597
  266  C   1.07392   0.84372   1.06408   1.00803
  267  C   1.08212   0.75609   0.85457   0.76787
  268  O   1.88959   1.53725   1.44721   1.64973
  269  C   1.06147   1.07135   1.15212   0.99938
  270  C   1.05796   0.97801   1.14649   1.08091
  271  C   1.05924   1.03547   1.11076   0.85465
  272  H   0.84161
  273  H   0.83935
  274  H   0.85126
  275  H   0.82797
  276  H   0.85877
  277  H   0.85822
  278  H   0.86510
  279  N   1.55562   1.19694   1.16643   1.54359
  280  C   1.07558   1.02083   0.90196   0.98326
  281  C   1.07398   0.77786   0.79807   0.81682
  282  O   1.88595   1.43206   1.82369   1.45613
  283  C   1.06126   1.07445   1.06112   1.07627
  284  C   1.05764   1.05932   1.06699   1.10169
  285  C   1.05750   0.92547   0.95568   1.11949
  286  H   0.84225
  287  H   0.84474
  288  H   0.85763
  289  H   0.84752
  290  H   0.88179
  291  H   0.86301
  292  H   0.85969
  293  N   1.54232   1.39303   1.14158   1.40900
  294  C   1.09569   1.07907   0.86780   1.07241
  295  C   1.07258   0.77040   0.69988   0.77404
  296  O   1.89019   1.87075   1.68211   1.30572
  297  C   1.07975   0.84466   1.00824   1.07848
  298  O   1.84462   1.39668   1.76640   1.54505
  299  O   1.89050   1.51297   1.67837   1.64769
  300  H   0.69178
  301  H   0.83648
  302  H   0.84673
  303  H   0.86277
  304  H   0.68761

           DATA FOR GRAPH WRITTEN TO DISK

 **********************
 *                    *
 * JOB ENDED NORMALLY *
 *                    *
 **********************



 TOTAL JOB TIME:             3.83 SECONDS

 == MOPAC DONE ==
